3
# CELL(abcABC): 1322.94304  1322.94304  1322.94304    90.00000    90.00000    90.00000  Step:           0  Bead:      29 positions{angstrom}  cell{angstrom}
       E  0.00000e+00  0.00000e+00  0.00000e+00
       E  0.00000e+00  0.00000e+00  0.00000e+00
       E  0.00000e+00  0.00000e+00  0.00000e+00
3
# CELL(abcABC): 1322.94304  1322.94304  1322.94304    90.00000    90.00000    90.00000  Step:         100  Bead:      29 positions{angstrom}  cell{angstrom}
       E -1.91672e+01 -3.61000e+01  4.76535e+00
       E  1.88441e+01  9.19085e+00 -1.36787e+01
       E  1.43365e+01  1.24145e+00 -1.68777e+01
3
# CELL(abcABC): 1322.94304  1322.94304  1322.94304    90.00000    90.00000    90.00000  Step:         200  Bead:      29 positions{angstrom}  cell{angstrom}
       E -1.49807e+01 -2.86270e+00  3.78728e+01
       E  3.17863e+01 -6.07045e+00  1.41507e+01
       E  1.30632e+01 -2.20625e+01  2.14695e+01
3
# CELL(abcABC): 1322.94304  1322.94304  1322.94304    90.00000    90.00000    90.00000  Step:         300  Bead:      29 positions{angstrom}  cell{angstrom}
       E  4.01916e+01 -2.47188e+01  1.34864e+01
       E  2.13958e+01 -1.68424e+01  9.66467e+00
       E  6.26994e+00  2.42459e+01  1.10472e+01
3
# CELL(abcABC): 1322.94304  1322.94304  1322.94304    90.00000    90.00000    90.00000  Step:         400  Bead:      29 positions{angstrom}  cell{angstrom}
       E  4.10044e+01 -8.81986e+00 -1.64871e+01
       E  3.53403e+01 -6.84398e+00 -2.05403e+01
       E -6.62004e+00  6.96408e+00  1.80648e+01
3
# CELL(abcABC): 1322.94304  1322.94304  1322.94304    90.00000    90.00000    90.00000  Step:         500  Bead:      29 positions{angstrom}  cell{angstrom}
       E  2.50075e+01  1.79138e+00 -1.95530e+01
       E  2.07212e+01  8.50217e+00 -3.74768e+00
       E -6.48563e+00 -1.90541e+01  3.31607e+01
3
# CELL(abcABC): 1322.94304  1322.94304  1322.94304    90.00000    90.00000    90.00000  Step:         600  Bead:      29 positions{angstrom}  cell{angstrom}
       E  4.03975e+01 -5.35807e+00  1.61674e+01
       E -2.52253e+01 -1.42484e+01  2.83566e+01
       E -4.14803e+00  2.37980e+01  4.62541e+01
3
# CELL(abcABC): 1322.94304  1322.94304  1322.94304    90.00000    90.00000    90.00000  Step:         700  Bead:      29 positions{angstrom}  cell{angstrom}
       E  9.63679e+00  8.89460e+00 -3.58424e+01
       E -3.31014e+01  1.94567e+01  3.88650e+01
       E -5.23576e+01  2.03272e+01  4.66929e+01
3
# CELL(abcABC): 1322.94304  1322.94304  1322.94304    90.00000    90.00000    90.00000  Step:         800  Bead:      29 positions{angstrom}  cell{angstrom}
       E  5.95223e+01  1.74778e+01 -1.00556e+01
       E -1.64368e+01  9.16845e-01  4.70167e+01
       E -4.69004e+01 -1.71998e+01  6.59278e+01
