3
# CELL(abcABC): 1322.94304  1322.94304  1322.94304    90.00000    90.00000    90.00000  Step:           0  Bead:      15 positions{angstrom}  cell{angstrom}
       E  0.00000e+00  0.00000e+00  0.00000e+00
       E  0.00000e+00  0.00000e+00  0.00000e+00
       E  0.00000e+00  0.00000e+00  0.00000e+00
3
# CELL(abcABC): 1322.94304  1322.94304  1322.94304    90.00000    90.00000    90.00000  Step:         100  Bead:      15 positions{angstrom}  cell{angstrom}
       E  6.78828e+00  8.62308e+00  2.57358e+01
       E  3.00417e+01 -3.57622e+00  8.68722e+00
       E -3.56901e+00 -2.03104e-01 -3.41506e+01
3
# CELL(abcABC): 1322.94304  1322.94304  1322.94304    90.00000    90.00000    90.00000  Step:         200  Bead:      15 positions{angstrom}  cell{angstrom}
       E -4.98786e+00  6.19359e+00  4.91859e+00
       E  3.33720e+01 -2.79919e+01 -3.04906e+01
       E -1.01245e+01  1.45265e+01 -1.66835e+01
3
# CELL(abcABC): 1322.94304  1322.94304  1322.94304    90.00000    90.00000    90.00000  Step:         300  Bead:      15 positions{angstrom}  cell{angstrom}
       E -3.25266e+01  1.81730e+01  1.38551e+01
       E  3.45690e+01  3.06207e+00 -2.82232e+01
       E -2.03644e+01  3.96329e+01  1.03723e+00
3
# CELL(abcABC): 1322.94304  1322.94304  1322.94304    90.00000    90.00000    90.00000  Step:         400  Bead:      15 positions{angstrom}  cell{angstrom}
       E -1.77341e+01  3.46376e+01  2.30376e+01
       E  3.18621e+01  2.83573e+01 -7.86242e+00
       E -6.07883e+01  2.38155e+01  1.62836e+01
3
# CELL(abcABC): 1322.94304  1322.94304  1322.94304    90.00000    90.00000    90.00000  Step:         500  Bead:      15 positions{angstrom}  cell{angstrom}
       E -2.84498e+01  9.02403e+00  4.56084e+00
       E  5.24844e+01  4.26221e+01 -9.48685e+00
       E -2.06996e+01  1.83777e+01  3.41874e+01
3
# CELL(abcABC): 1322.94304  1322.94304  1322.94304    90.00000    90.00000    90.00000  Step:         600  Bead:      15 positions{angstrom}  cell{angstrom}
       E -3.31408e+00 -1.25281e+01 -2.98550e+01
       E  4.90118e+01 -6.58072e+00 -5.05014e+00
       E -2.04565e+01  6.16332e+00  1.01062e+01
3
# CELL(abcABC): 1322.94304  1322.94304  1322.94304    90.00000    90.00000    90.00000  Step:         700  Bead:      15 positions{angstrom}  cell{angstrom}
       E -1.24501e+01  2.80156e+00 -1.14136e+01
       E  1.18798e+01  5.39763e+01 -9.60938e-01
       E -4.71162e+01  9.93600e+00  2.71648e+01
3
# CELL(abcABC): 1322.94304  1322.94304  1322.94304    90.00000    90.00000    90.00000  Step:         800  Bead:      15 positions{angstrom}  cell{angstrom}
       E  3.12216e+00  2.32891e+01  5.21699e+00
       E  9.65383e+00  4.43076e+01  4.68001e+00
       E -3.52254e+01 -2.53092e+01  4.22796e+01
