3
# CELL(abcABC): 1322.94304  1322.94304  1322.94304    90.00000    90.00000    90.00000  Step:           0  Bead:      16 positions{angstrom}  cell{angstrom}
       E  0.00000e+00  0.00000e+00  0.00000e+00
       E  0.00000e+00  0.00000e+00  0.00000e+00
       E  0.00000e+00  0.00000e+00  0.00000e+00
3
# CELL(abcABC): 1322.94304  1322.94304  1322.94304    90.00000    90.00000    90.00000  Step:         100  Bead:      16 positions{angstrom}  cell{angstrom}
       E  1.73283e+01 -1.75233e+00  2.26676e+01
       E  1.36367e+01 -2.20869e+01  3.61596e+00
       E -1.72258e+01  9.25660e+00 -2.47803e+01
3
# CELL(abcABC): 1322.94304  1322.94304  1322.94304    90.00000    90.00000    90.00000  Step:         200  Bead:      16 positions{angstrom}  cell{angstrom}
       E  7.13718e+00  1.02029e+01  1.78139e+01
       E  2.61497e+00 -2.01698e+01 -1.46837e+01
       E -5.26883e+00  1.63672e+01 -3.07230e+01
3
# CELL(abcABC): 1322.94304  1322.94304  1322.94304    90.00000    90.00000    90.00000  Step:         300  Bead:      16 positions{angstrom}  cell{angstrom}
       E -2.80416e+01 -4.88601e+00  1.63372e+01
       E  2.82909e+01  3.37304e+00 -2.24887e+01
       E -2.15389e+01  3.61258e+01 -1.66578e+01
3
# CELL(abcABC): 1322.94304  1322.94304  1322.94304    90.00000    90.00000    90.00000  Step:         400  Bead:      16 positions{angstrom}  cell{angstrom}
       E -1.27295e+01  2.85782e+01  1.10487e+01
       E  2.82457e+01  1.81108e+01 -2.51890e+01
       E -4.54350e+01  2.88756e+01  1.62900e+01
3
# CELL(abcABC): 1322.94304  1322.94304  1322.94304    90.00000    90.00000    90.00000  Step:         500  Bead:      16 positions{angstrom}  cell{angstrom}
       E -2.06293e+01  1.18125e+00  1.37852e+01
       E  5.16087e+01  1.83062e+01 -1.87806e+01
       E -2.68758e+01 -6.62874e+00  3.33854e+01
3
# CELL(abcABC): 1322.94304  1322.94304  1322.94304    90.00000    90.00000    90.00000  Step:         600  Bead:      16 positions{angstrom}  cell{angstrom}
       E -7.24209e+00 -3.14425e+01 -1.94506e+01
       E  3.17834e+01 -2.40975e-01 -9.41058e+00
       E -2.40574e+01  4.50682e+00  2.68792e+01
3
# CELL(abcABC): 1322.94304  1322.94304  1322.94304    90.00000    90.00000    90.00000  Step:         700  Bead:      16 positions{angstrom}  cell{angstrom}
       E -7.27441e+00  1.66797e+00  4.11677e+00
       E  3.32908e+01  5.12730e+01 -6.23796e+00
       E -4.90112e+01 -2.11286e+01  2.01014e+01
3
# CELL(abcABC): 1322.94304  1322.94304  1322.94304    90.00000    90.00000    90.00000  Step:         800  Bead:      16 positions{angstrom}  cell{angstrom}
       E  1.48404e+01  1.40740e+01 -1.26174e+00
       E  1.64974e+01  4.30556e+01  1.47307e+01
       E -5.88472e+01 -2.72590e+01  6.71862e+01
