3
# CELL(abcABC): 1322.94304  1322.94304  1322.94304    90.00000    90.00000    90.00000  Step:           0  Bead:       4 positions{angstrom}  cell{angstrom}
       E  0.00000e+00  0.00000e+00  0.00000e+00
       E  0.00000e+00  0.00000e+00  0.00000e+00
       E  0.00000e+00  0.00000e+00  0.00000e+00
3
# CELL(abcABC): 1322.94304  1322.94304  1322.94304    90.00000    90.00000    90.00000  Step:         100  Bead:       4 positions{angstrom}  cell{angstrom}
       E -2.94658e+01 -4.84006e+01 -9.52119e+00
       E  1.71409e+01 -4.21740e+00 -5.90846e+00
       E -1.47774e+01  7.79480e-01  2.08747e+01
3
# CELL(abcABC): 1322.94304  1322.94304  1322.94304    90.00000    90.00000    90.00000  Step:         200  Bead:       4 positions{angstrom}  cell{angstrom}
       E -3.14517e+01 -3.00864e+01 -6.13795e+00
       E  2.50306e+01  1.75816e+01 -2.68525e+01
       E -1.64791e+01  6.74811e+00  3.10376e+01
3
# CELL(abcABC): 1322.94304  1322.94304  1322.94304    90.00000    90.00000    90.00000  Step:         300  Bead:       4 positions{angstrom}  cell{angstrom}
       E  9.75762e+00 -9.84524e+00 -4.21843e+01
       E  1.31285e+01  1.56275e+01 -2.30208e+01
       E -4.28711e+01 -1.48085e+01  3.38688e+01
3
# CELL(abcABC): 1322.94304  1322.94304  1322.94304    90.00000    90.00000    90.00000  Step:         400  Bead:       4 positions{angstrom}  cell{angstrom}
       E  4.03584e+01  1.70840e+01  1.32386e+01
       E  2.23683e+01  1.37899e+01 -1.16531e+01
       E -3.32225e+01  1.64268e+01  4.61313e+01
3
# CELL(abcABC): 1322.94304  1322.94304  1322.94304    90.00000    90.00000    90.00000  Step:         500  Bead:       4 positions{angstrom}  cell{angstrom}
       E  1.10301e+01  7.38398e+00 -2.50526e+00
       E  2.47587e+01  1.71971e+01  7.99209e+00
       E -3.65155e+01  2.06164e+01 -6.86146e+00
3
# CELL(abcABC): 1322.94304  1322.94304  1322.94304    90.00000    90.00000    90.00000  Step:         600  Bead:       4 positions{angstrom}  cell{angstrom}
       E -1.55537e+01  1.52174e+01 -4.34079e+01
       E -1.08188e+01 -1.97252e+00  3.10053e+01
       E -3.67159e+01  5.43090e+00  3.08626e+01
3
# CELL(abcABC): 1322.94304  1322.94304  1322.94304    90.00000    90.00000    90.00000  Step:         700  Bead:       4 positions{angstrom}  cell{angstrom}
       E -1.16811e+01 -2.49913e+00 -1.47679e+01
       E -1.99024e+00  5.96380e+00 -5.86323e+00
       E -2.57304e+01  1.89935e+01  4.06867e+01
3
# CELL(abcABC): 1322.94304  1322.94304  1322.94304    90.00000    90.00000    90.00000  Step:         800  Bead:       4 positions{angstrom}  cell{angstrom}
       E -6.91568e+00  1.49823e+01 -4.82396e+01
       E -1.99696e+01  1.12673e+01 -3.65038e+00
       E -5.14127e+01  3.36044e+01  5.78419e+01
