3
# CELL(abcABC): 1322.94304  1322.94304  1322.94304    90.00000    90.00000    90.00000  Step:           0  Bead:      23 positions{angstrom}  cell{angstrom}
       E  0.00000e+00  0.00000e+00  0.00000e+00
       E  0.00000e+00  0.00000e+00  0.00000e+00
       E  0.00000e+00  0.00000e+00  0.00000e+00
3
# CELL(abcABC): 1322.94304  1322.94304  1322.94304    90.00000    90.00000    90.00000  Step:         100  Bead:      23 positions{angstrom}  cell{angstrom}
       E  3.03649e+01 -2.16670e+01 -1.63149e+01
       E  7.45625e+00 -2.55353e+01 -1.26697e+01
       E -3.99645e+00  1.23223e+01  5.85823e+00
3
# CELL(abcABC): 1322.94304  1322.94304  1322.94304    90.00000    90.00000    90.00000  Step:         200  Bead:      23 positions{angstrom}  cell{angstrom}
       E -8.85684e+00 -2.30803e+01  1.68382e+01
       E  1.90756e+01 -5.84519e+01 -6.19249e+00
       E  3.27971e-01  3.01306e+01  4.81570e-01
3
# CELL(abcABC): 1322.94304  1322.94304  1322.94304    90.00000    90.00000    90.00000  Step:         300  Bead:      23 positions{angstrom}  cell{angstrom}
       E -9.50555e+00 -1.07105e+01  3.28625e+01
       E  2.15501e+01 -1.96961e+01  1.34038e+01
       E -9.58232e+00  1.05408e+01 -5.71487e+00
3
# CELL(abcABC): 1322.94304  1322.94304  1322.94304    90.00000    90.00000    90.00000  Step:         400  Bead:      23 positions{angstrom}  cell{angstrom}
       E  1.74931e+01  2.11054e+00 -1.36922e+01
       E  2.73792e+01 -3.41299e+01 -1.48156e+01
       E -1.16471e+01  1.36858e+01  2.33099e+00
3
# CELL(abcABC): 1322.94304  1322.94304  1322.94304    90.00000    90.00000    90.00000  Step:         500  Bead:      23 positions{angstrom}  cell{angstrom}
       E  4.66382e+00 -1.59041e+01 -5.09163e+01
       E  2.85372e+01  1.67004e+01  6.12043e-01
       E -2.94747e+01 -7.41772e+00  3.29369e+01
3
# CELL(abcABC): 1322.94304  1322.94304  1322.94304    90.00000    90.00000    90.00000  Step:         600  Bead:      23 positions{angstrom}  cell{angstrom}
       E  4.32284e+01 -4.65772e+00 -2.56548e+01
       E  3.43104e+01  1.78037e+01 -5.91171e+00
       E  1.59850e-02  3.81543e+00  4.73737e+00
3
# CELL(abcABC): 1322.94304  1322.94304  1322.94304    90.00000    90.00000    90.00000  Step:         700  Bead:      23 positions{angstrom}  cell{angstrom}
       E  5.06088e+01 -9.33790e+00 -2.09818e+01
       E  2.88354e+01 -1.66139e+01  1.44877e+01
       E -2.75716e+01 -6.43986e+00  6.33301e+01
3
# CELL(abcABC): 1322.94304  1322.94304  1322.94304    90.00000    90.00000    90.00000  Step:         800  Bead:      23 positions{angstrom}  cell{angstrom}
       E  2.86449e+01 -1.34810e+01 -1.18178e+01
       E  4.87063e+01  1.77931e+01  1.18807e+01
       E -4.43303e+01 -1.50878e+01  6.55042e+01
