3
# CELL(abcABC): 1322.94304  1322.94304  1322.94304    90.00000    90.00000    90.00000  Step:           0  Bead:       0 positions{angstrom}  cell{angstrom}
       E  4.12758e+01 -1.11127e+01  3.06923e+01
       E  8.99601e+00 -4.44509e+01 -4.92135e+01
       E  2.75172e+01 -2.96339e+01 -6.87930e+00
3
# CELL(abcABC): 1322.94304  1322.94304  1322.94304    90.00000    90.00000    90.00000  Step:         100  Bead:       0 positions{angstrom}  cell{angstrom}
       E -3.08269e+01 -3.92495e+01  1.29533e+01
       E  6.88373e+00  1.08806e+01 -2.83402e+01
       E  1.69716e+01  2.51371e+00  1.47675e+01
3
# CELL(abcABC): 1322.94304  1322.94304  1322.94304    90.00000    90.00000    90.00000  Step:         200  Bead:       0 positions{angstrom}  cell{angstrom}
       E -1.95438e+01 -1.18335e+01  3.49156e+01
       E  5.07411e+01  3.12415e+01 -3.02835e+00
       E -2.61107e+01  1.28987e+01  1.97116e+01
3
# CELL(abcABC): 1322.94304  1322.94304  1322.94304    90.00000    90.00000    90.00000  Step:         300  Bead:       0 positions{angstrom}  cell{angstrom}
       E  4.78678e+01 -9.29638e+00 -2.84308e+01
       E  3.81723e+01  9.61826e+00  5.08583e+00
       E -2.08713e+01  3.61319e+01 -1.66890e+00
3
# CELL(abcABC): 1322.94304  1322.94304  1322.94304    90.00000    90.00000    90.00000  Step:         400  Bead:       0 positions{angstrom}  cell{angstrom}
       E  3.82436e+01  1.86765e+01 -1.25477e+01
       E  4.30756e+01  8.67528e+00 -1.27984e+01
       E -1.09417e+01  2.32399e+01  1.27076e+01
3
# CELL(abcABC): 1322.94304  1322.94304  1322.94304    90.00000    90.00000    90.00000  Step:         500  Bead:       0 positions{angstrom}  cell{angstrom}
       E  1.61317e+01  3.40882e+00 -2.62505e+00
       E  1.60801e+01  1.82601e+01  1.44495e+01
       E -4.51190e+00  1.36214e+01  2.68611e+01
3
# CELL(abcABC): 1322.94304  1322.94304  1322.94304    90.00000    90.00000    90.00000  Step:         600  Bead:       0 positions{angstrom}  cell{angstrom}
       E  2.57425e+00 -5.59565e+00 -1.46794e+01
       E -4.55899e+00 -2.50968e+00  1.99895e+01
       E -3.53938e+01  2.37837e+01  2.46835e+01
3
# CELL(abcABC): 1322.94304  1322.94304  1322.94304    90.00000    90.00000    90.00000  Step:         700  Bead:       0 positions{angstrom}  cell{angstrom}
       E  8.18919e+00  1.10027e+01 -2.18904e+01
       E -1.52615e+01 -2.49823e+01  3.50613e+01
       E -2.91952e+01  9.37248e+00  1.74137e+01
3
# CELL(abcABC): 1322.94304  1322.94304  1322.94304    90.00000    90.00000    90.00000  Step:         800  Bead:       0 positions{angstrom}  cell{angstrom}
       E  3.11514e+01  2.72918e+01  1.10050e+01
       E -2.78570e+01 -1.41097e+00  1.79526e+01
       E -1.45910e+01  3.09530e+01  4.83641e+01
