3
# CELL(abcABC): 1322.94304  1322.94304  1322.94304    90.00000    90.00000    90.00000  Step:           0  Bead:       9 positions{angstrom}  cell{angstrom}
       E  0.00000e+00  0.00000e+00  0.00000e+00
       E  0.00000e+00  0.00000e+00  0.00000e+00
       E  0.00000e+00  0.00000e+00  0.00000e+00
3
# CELL(abcABC): 1322.94304  1322.94304  1322.94304    90.00000    90.00000    90.00000  Step:         100  Bead:       9 positions{angstrom}  cell{angstrom}
       E -2.27127e+01  6.49760e+00  3.57645e+00
       E -1.20339e+01  3.72357e-02 -3.16179e+01
       E -2.86691e+01  9.11416e+00 -8.16413e+00
3
# CELL(abcABC): 1322.94304  1322.94304  1322.94304    90.00000    90.00000    90.00000  Step:         200  Bead:       9 positions{angstrom}  cell{angstrom}
       E -1.43776e+01 -3.51963e+01 -5.07454e+01
       E  5.75569e+01  1.01568e+01 -4.59610e+01
       E -3.47861e+01 -5.27566e+00 -1.06616e+01
3
# CELL(abcABC): 1322.94304  1322.94304  1322.94304    90.00000    90.00000    90.00000  Step:         300  Bead:       9 positions{angstrom}  cell{angstrom}
       E -2.47284e+01 -2.62844e+01 -3.60339e+01
       E  3.47320e+01  1.52967e+01 -1.84141e+01
       E -3.75583e+01  9.12554e+00  1.61558e+01
3
# CELL(abcABC): 1322.94304  1322.94304  1322.94304    90.00000    90.00000    90.00000  Step:         400  Bead:       9 positions{angstrom}  cell{angstrom}
       E  8.77537e+00  1.21811e+01 -1.09217e+01
       E -3.95775e+00  4.69462e+01 -1.51666e+00
       E -4.54257e+00  1.01261e+01  1.37607e+01
3
# CELL(abcABC): 1322.94304  1322.94304  1322.94304    90.00000    90.00000    90.00000  Step:         500  Bead:       9 positions{angstrom}  cell{angstrom}
       E -1.54454e+01  1.93390e+01  9.89786e-01
       E  2.98854e+01  1.79728e+01  8.00369e+00
       E -2.55915e+01  8.94378e+00  4.05313e+01
3
# CELL(abcABC): 1322.94304  1322.94304  1322.94304    90.00000    90.00000    90.00000  Step:         600  Bead:       9 positions{angstrom}  cell{angstrom}
       E -3.48810e+01  3.81186e+01 -2.67114e+01
       E -1.41369e+01 -2.42705e+00  2.35653e+01
       E  7.74794e-01  5.29747e+00  1.09123e+01
3
# CELL(abcABC): 1322.94304  1322.94304  1322.94304    90.00000    90.00000    90.00000  Step:         700  Bead:       9 positions{angstrom}  cell{angstrom}
       E -5.77111e+00  3.47802e+01 -2.64318e+01
       E  3.25476e+00  3.52903e+01  3.80763e+01
       E -2.90909e+00  2.10434e+01  2.52282e+01
3
# CELL(abcABC): 1322.94304  1322.94304  1322.94304    90.00000    90.00000    90.00000  Step:         800  Bead:       9 positions{angstrom}  cell{angstrom}
       E -3.88641e+01  3.32500e+01 -3.49463e+01
       E  1.79962e+01  6.41396e+01  2.29045e+01
       E -7.46641e+01  1.15295e+01  6.98520e+01
