3
# CELL(abcABC): 1322.94304  1322.94304  1322.94304    90.00000    90.00000    90.00000  Step:           0  Bead:      12 positions{angstrom}  cell{angstrom}
       E  0.00000e+00  0.00000e+00  0.00000e+00
       E  0.00000e+00  0.00000e+00  0.00000e+00
       E  0.00000e+00  0.00000e+00  0.00000e+00
3
# CELL(abcABC): 1322.94304  1322.94304  1322.94304    90.00000    90.00000    90.00000  Step:         100  Bead:      12 positions{angstrom}  cell{angstrom}
       E  1.53619e+00 -6.43643e+00  8.67503e+00
       E  1.24616e+01  1.11461e+01 -1.18118e+01
       E -2.73512e+01  9.24988e+00 -2.97855e+01
3
# CELL(abcABC): 1322.94304  1322.94304  1322.94304    90.00000    90.00000    90.00000  Step:         200  Bead:      12 positions{angstrom}  cell{angstrom}
       E -1.15445e+01 -2.16308e+01 -1.45776e+01
       E  3.29675e+01 -1.65625e+01 -3.06499e+01
       E -3.86345e+01 -9.65554e+00  3.24305e+00
3
# CELL(abcABC): 1322.94304  1322.94304  1322.94304    90.00000    90.00000    90.00000  Step:         300  Bead:      12 positions{angstrom}  cell{angstrom}
       E -2.40079e+01  2.04849e+01 -1.78093e+01
       E  2.51854e+01  1.94226e+01 -2.82469e+01
       E -4.19564e+01  2.97557e+01  3.77710e+01
3
# CELL(abcABC): 1322.94304  1322.94304  1322.94304    90.00000    90.00000    90.00000  Step:         400  Bead:      12 positions{angstrom}  cell{angstrom}
       E -1.58769e+01  9.87768e+00  1.19449e+01
       E  3.19516e+01  7.18087e+01 -7.64323e+00
       E -2.93479e+01  7.09889e+00  3.34870e+01
3
# CELL(abcABC): 1322.94304  1322.94304  1322.94304    90.00000    90.00000    90.00000  Step:         500  Bead:      12 positions{angstrom}  cell{angstrom}
       E -7.65849e+00  2.80743e+01 -2.29177e+01
       E  3.57742e+01  4.92814e+01  1.98020e+00
       E -2.50253e+00  3.07848e+01  3.19554e+01
3
# CELL(abcABC): 1322.94304  1322.94304  1322.94304    90.00000    90.00000    90.00000  Step:         600  Bead:      12 positions{angstrom}  cell{angstrom}
       E  1.29613e+01 -5.22713e+00 -4.98853e+01
       E  1.28004e+01 -9.24134e+00  2.09758e+01
       E  6.60698e+00  1.15852e+01  3.96692e+01
3
# CELL(abcABC): 1322.94304  1322.94304  1322.94304    90.00000    90.00000    90.00000  Step:         700  Bead:      12 positions{angstrom}  cell{angstrom}
       E  3.05615e+00  4.12173e+01 -1.44585e+01
       E  1.11234e+01  2.89484e+01  4.40441e+01
       E  1.06914e+01  9.35601e+00  2.13497e+01
3
# CELL(abcABC): 1322.94304  1322.94304  1322.94304    90.00000    90.00000    90.00000  Step:         800  Bead:      12 positions{angstrom}  cell{angstrom}
       E -1.18779e+01  9.86739e+00  2.69575e+00
       E -1.13687e+01  3.61583e+01 -1.15269e+01
       E -2.99121e+01  1.71668e+01  2.73893e+01
