3
# CELL(abcABC): 1322.94304  1322.94304  1322.94304    90.00000    90.00000    90.00000  Step:           0  Bead:      10 positions{angstrom}  cell{angstrom}
       E  0.00000e+00  0.00000e+00  0.00000e+00
       E  0.00000e+00  0.00000e+00  0.00000e+00
       E  0.00000e+00  0.00000e+00  0.00000e+00
3
# CELL(abcABC): 1322.94304  1322.94304  1322.94304    90.00000    90.00000    90.00000  Step:         100  Bead:      10 positions{angstrom}  cell{angstrom}
       E -5.45524e+00  5.04610e+00 -6.09654e+00
       E -5.27142e+00  1.39126e+01 -1.87806e+01
       E -1.77958e+01 -3.37770e+00 -2.69987e+00
3
# CELL(abcABC): 1322.94304  1322.94304  1322.94304    90.00000    90.00000    90.00000  Step:         200  Bead:      10 positions{angstrom}  cell{angstrom}
       E -1.35615e+01 -5.56005e+01 -1.58140e+01
       E  3.21136e+01  1.63781e+01 -3.21021e+01
       E -4.67696e+01 -5.42779e+00 -1.05647e+01
3
# CELL(abcABC): 1322.94304  1322.94304  1322.94304    90.00000    90.00000    90.00000  Step:         300  Bead:      10 positions{angstrom}  cell{angstrom}
       E -3.48461e+01 -8.95396e+00 -2.02643e+00
       E  3.12249e+01  2.28625e+01 -1.19605e+01
       E -3.25393e+01  1.27923e+01  2.13616e+01
3
# CELL(abcABC): 1322.94304  1322.94304  1322.94304    90.00000    90.00000    90.00000  Step:         400  Bead:      10 positions{angstrom}  cell{angstrom}
       E -7.25384e-01  1.73392e+01 -9.38812e+00
       E  3.63794e+00  4.14903e+01 -8.73715e+00
       E -1.93471e+01  8.86672e+00  2.45171e+01
3
# CELL(abcABC): 1322.94304  1322.94304  1322.94304    90.00000    90.00000    90.00000  Step:         500  Bead:      10 positions{angstrom}  cell{angstrom}
       E -1.23747e+01  1.32937e+01 -9.51216e-01
       E  2.58069e+01  1.19615e+01  7.61158e+00
       E -3.10945e+01  2.24559e+01  4.94893e+01
3
# CELL(abcABC): 1322.94304  1322.94304  1322.94304    90.00000    90.00000    90.00000  Step:         600  Bead:      10 positions{angstrom}  cell{angstrom}
       E -1.71223e+01  2.39403e+01 -2.07719e+01
       E -1.47794e+01 -1.21934e+00  3.38760e+01
       E  2.24129e+01  3.59345e+00  3.94767e+01
3
# CELL(abcABC): 1322.94304  1322.94304  1322.94304    90.00000    90.00000    90.00000  Step:         700  Bead:      10 positions{angstrom}  cell{angstrom}
       E -5.63642e+00  4.68801e+01 -4.03443e+01
       E  4.90882e+00  5.61617e+01  4.01099e+01
       E -1.32340e+01 -2.06508e+00  2.30991e+01
3
# CELL(abcABC): 1322.94304  1322.94304  1322.94304    90.00000    90.00000    90.00000  Step:         800  Bead:      10 positions{angstrom}  cell{angstrom}
       E -3.72448e+01  3.91003e+01 -1.29279e+01
       E  4.55349e+00  5.06990e+01  6.54407e+00
       E -6.37201e+01  1.87795e+01  6.16573e+01
