3
# CELL(abcABC): 1322.94304  1322.94304  1322.94304    90.00000    90.00000    90.00000  Step:           0  Bead:      26 positions{angstrom}  cell{angstrom}
       E  0.00000e+00  0.00000e+00  0.00000e+00
       E  0.00000e+00  0.00000e+00  0.00000e+00
       E  0.00000e+00  0.00000e+00  0.00000e+00
3
# CELL(abcABC): 1322.94304  1322.94304  1322.94304    90.00000    90.00000    90.00000  Step:         100  Bead:      26 positions{angstrom}  cell{angstrom}
       E  2.55655e+01 -1.03669e+01  1.02696e+01
       E  5.68275e+00 -5.20226e+01  1.48098e+01
       E -6.13301e+00 -6.54057e+00 -1.68406e+01
3
# CELL(abcABC): 1322.94304  1322.94304  1322.94304    90.00000    90.00000    90.00000  Step:         200  Bead:      26 positions{angstrom}  cell{angstrom}
       E -2.52514e+01 -1.84730e+01  3.95160e+01
       E  4.88073e-01 -2.96428e+01  2.43852e+01
       E  2.32110e+01  6.70735e+00 -4.39490e-01
3
# CELL(abcABC): 1322.94304  1322.94304  1322.94304    90.00000    90.00000    90.00000  Step:         300  Bead:      26 positions{angstrom}  cell{angstrom}
       E  8.73876e+00 -3.77739e+00  1.98796e+01
       E  1.00775e+01 -2.64460e+01 -1.74077e+01
       E  1.80575e+01  8.23233e+00  1.13001e+01
3
# CELL(abcABC): 1322.94304  1322.94304  1322.94304    90.00000    90.00000    90.00000  Step:         400  Bead:      26 positions{angstrom}  cell{angstrom}
       E  2.67380e+01  1.23690e+01 -9.06657e+00
       E  2.36827e-01 -2.70458e+01 -1.53137e+01
       E  1.77194e+01  1.21518e+01 -1.65727e+01
3
# CELL(abcABC): 1322.94304  1322.94304  1322.94304    90.00000    90.00000    90.00000  Step:         500  Bead:      26 positions{angstrom}  cell{angstrom}
       E  4.64051e+01 -2.57534e+01 -3.39664e+01
       E  1.31476e+01  3.43252e-01 -1.32694e+01
       E  1.49829e+01 -6.57069e+00  3.17134e+01
3
# CELL(abcABC): 1322.94304  1322.94304  1322.94304    90.00000    90.00000    90.00000  Step:         600  Bead:      26 positions{angstrom}  cell{angstrom}
       E  5.58537e+01 -1.57022e+01 -8.24163e+00
       E -5.28307e+00 -5.72756e+00  2.03699e+01
       E  8.83739e+00  2.71592e+01  5.86169e+01
3
# CELL(abcABC): 1322.94304  1322.94304  1322.94304    90.00000    90.00000    90.00000  Step:         700  Bead:      26 positions{angstrom}  cell{angstrom}
       E  3.52863e+01 -1.13369e+00 -1.19842e+01
       E -5.91759e+00 -1.30301e+01  3.25026e+01
       E -4.47991e+01  1.02492e+01  6.64526e+01
3
# CELL(abcABC): 1322.94304  1322.94304  1322.94304    90.00000    90.00000    90.00000  Step:         800  Bead:      26 positions{angstrom}  cell{angstrom}
       E  5.76519e+01  9.80662e+00 -8.59539e+00
       E  2.89311e+01  1.32684e+01  3.85302e+01
       E -4.25149e+01  2.44602e+00  6.26284e+01
