3
# CELL(abcABC): 1322.94304  1322.94304  1322.94304    90.00000    90.00000    90.00000  Step:           0  Bead:      25 positions{angstrom}  cell{angstrom}
       E  0.00000e+00  0.00000e+00  0.00000e+00
       E  0.00000e+00  0.00000e+00  0.00000e+00
       E  0.00000e+00  0.00000e+00  0.00000e+00
3
# CELL(abcABC): 1322.94304  1322.94304  1322.94304    90.00000    90.00000    90.00000  Step:         100  Bead:      25 positions{angstrom}  cell{angstrom}
       E  2.45690e+01 -2.87126e+01  1.33003e+01
       E  1.39078e+01 -4.74900e+01  2.17704e+01
       E -2.45508e+00 -7.23755e-01 -7.11303e+00
3
# CELL(abcABC): 1322.94304  1322.94304  1322.94304    90.00000    90.00000    90.00000  Step:         200  Bead:      25 positions{angstrom}  cell{angstrom}
       E -2.02724e+01 -9.27667e+00  3.87105e+01
       E -2.78468e+00 -6.55441e+01  9.20114e+00
       E  2.37787e+01  2.29960e+01  4.61690e+00
3
# CELL(abcABC): 1322.94304  1322.94304  1322.94304    90.00000    90.00000    90.00000  Step:         300  Bead:      25 positions{angstrom}  cell{angstrom}
       E  1.21890e+01 -2.22048e+01  1.57808e+01
       E  1.38868e+01 -2.60915e+01 -3.67831e+00
       E  6.23563e+00  1.08516e+01  9.33466e+00
3
# CELL(abcABC): 1322.94304  1322.94304  1322.94304    90.00000    90.00000    90.00000  Step:         400  Bead:      25 positions{angstrom}  cell{angstrom}
       E  2.38678e+01  7.05017e+00 -1.05180e+01
       E  1.52402e+01 -3.06806e+01 -2.71004e+01
       E  8.03279e+00  1.37740e+01  9.26930e+00
3
# CELL(abcABC): 1322.94304  1322.94304  1322.94304    90.00000    90.00000    90.00000  Step:         500  Bead:      25 positions{angstrom}  cell{angstrom}
       E  5.62784e+01 -1.39321e+01 -3.79285e+01
       E  2.49127e+00  1.31996e+01  1.09313e+01
       E  8.31808e+00 -4.76671e+00  2.32582e+01
3
# CELL(abcABC): 1322.94304  1322.94304  1322.94304    90.00000    90.00000    90.00000  Step:         600  Bead:      25 positions{angstrom}  cell{angstrom}
       E  4.53172e+01 -9.38937e+00 -1.50597e+01
       E  8.74184e+00 -1.25714e+01  2.79678e+01
       E  1.64594e+01  3.09778e+01  5.02675e+01
3
# CELL(abcABC): 1322.94304  1322.94304  1322.94304    90.00000    90.00000    90.00000  Step:         700  Bead:      25 positions{angstrom}  cell{angstrom}
       E  3.93825e+01 -5.78685e+00 -2.56217e+01
       E  1.29609e+01 -1.54355e+01  3.22384e+01
       E -3.83593e+01  1.56663e+01  5.48573e+01
3
# CELL(abcABC): 1322.94304  1322.94304  1322.94304    90.00000    90.00000    90.00000  Step:         800  Bead:      25 positions{angstrom}  cell{angstrom}
       E  4.82141e+01  1.17526e+01 -1.38197e+01
       E  2.89030e+01  1.36081e+01  2.92962e+01
       E -4.09113e+01  1.91941e+01  4.39154e+01
