3
# CELL(abcABC): 1322.94304  1322.94304  1322.94304    90.00000    90.00000    90.00000  Step:           0  Bead:       1 positions{angstrom}  cell{angstrom}
       E  0.00000e+00  0.00000e+00  0.00000e+00
       E  0.00000e+00  0.00000e+00  0.00000e+00
       E  0.00000e+00  0.00000e+00  0.00000e+00
3
# CELL(abcABC): 1322.94304  1322.94304  1322.94304    90.00000    90.00000    90.00000  Step:         100  Bead:       1 positions{angstrom}  cell{angstrom}
       E -3.61486e+01 -4.43127e+01  1.61684e+00
       E  4.12106e+00 -7.75270e+00 -7.30421e+00
       E  7.44180e+00 -9.39020e+00  1.76327e+01
3
# CELL(abcABC): 1322.94304  1322.94304  1322.94304    90.00000    90.00000    90.00000  Step:         200  Bead:       1 positions{angstrom}  cell{angstrom}
       E -2.49565e+01 -2.58040e+01  2.31349e+01
       E  3.77895e+01  2.55588e+01  2.73627e+00
       E -2.23955e+01  1.72897e+01  3.13190e+01
3
# CELL(abcABC): 1322.94304  1322.94304  1322.94304    90.00000    90.00000    90.00000  Step:         300  Bead:       1 positions{angstrom}  cell{angstrom}
       E  3.57289e+01  3.92200e+00 -4.32808e+01
       E  3.31400e+01  4.67708e-01  3.01707e+00
       E -1.27206e+01  2.81215e+01  3.79067e+00
3
# CELL(abcABC): 1322.94304  1322.94304  1322.94304    90.00000    90.00000    90.00000  Step:         400  Bead:       1 positions{angstrom}  cell{angstrom}
       E  2.81164e+01  1.52669e+01  4.68378e+00
       E  3.87364e+01  7.19965e-01  3.39225e+00
       E -2.49808e+01  3.17327e+01  1.31535e+01
3
# CELL(abcABC): 1322.94304  1322.94304  1322.94304    90.00000    90.00000    90.00000  Step:         500  Bead:       1 positions{angstrom}  cell{angstrom}
       E  2.80627e+01 -1.26152e+00 -6.73245e-01
       E  3.57362e+01  4.06751e+01  1.46967e+01
       E -2.30712e+01  1.90357e+01  1.69151e+01
3
# CELL(abcABC): 1322.94304  1322.94304  1322.94304    90.00000    90.00000    90.00000  Step:         600  Bead:       1 positions{angstrom}  cell{angstrom}
       E  6.56366e+00  4.88821e+00 -1.06007e+01
       E -2.69740e+01  7.37840e+00  1.80115e+01
       E -3.01926e+01  5.62273e+00  3.18598e+01
3
# CELL(abcABC): 1322.94304  1322.94304  1322.94304    90.00000    90.00000    90.00000  Step:         700  Bead:       1 positions{angstrom}  cell{angstrom}
       E  2.18927e+00  8.90191e+00 -9.14158e+00
       E -1.42141e+01 -2.59452e+01  4.03868e+01
       E -2.62344e+01  8.08563e+00  2.63847e+01
3
# CELL(abcABC): 1322.94304  1322.94304  1322.94304    90.00000    90.00000    90.00000  Step:         800  Bead:       1 positions{angstrom}  cell{angstrom}
       E  3.99872e+01  2.49524e+01  3.29819e+00
       E -1.47148e+01  1.65782e+00  2.67201e+01
       E -2.80913e+01  4.30363e+01  4.48285e+01
