3
# CELL(abcABC): 1322.94304  1322.94304  1322.94304    90.00000    90.00000    90.00000  Step:           0  Bead:      11 positions{angstrom}  cell{angstrom}
       E  0.00000e+00  0.00000e+00  0.00000e+00
       E  0.00000e+00  0.00000e+00  0.00000e+00
       E  0.00000e+00  0.00000e+00  0.00000e+00
3
# CELL(abcABC): 1322.94304  1322.94304  1322.94304    90.00000    90.00000    90.00000  Step:         100  Bead:      11 positions{angstrom}  cell{angstrom}
       E -9.83040e+00  1.51593e+00 -1.33534e+01
       E  1.55452e+01  1.19717e+01 -2.59923e+01
       E -1.85137e+01 -4.84390e+00 -6.34201e+00
3
# CELL(abcABC): 1322.94304  1322.94304  1322.94304    90.00000    90.00000    90.00000  Step:         200  Bead:      11 positions{angstrom}  cell{angstrom}
       E -1.79651e+01 -3.77108e+01 -1.04111e+01
       E  3.98692e+01 -1.44278e+01 -3.19230e+01
       E -4.62855e+01 -9.44781e+00 -1.40269e+01
3
# CELL(abcABC): 1322.94304  1322.94304  1322.94304    90.00000    90.00000    90.00000  Step:         300  Bead:      11 positions{angstrom}  cell{angstrom}
       E -1.69860e+01  2.39016e+00 -1.79888e+01
       E  3.73231e+01  1.55169e+01 -1.72835e+01
       E -3.50426e+01  1.08126e+01  3.41475e+01
3
# CELL(abcABC): 1322.94304  1322.94304  1322.94304    90.00000    90.00000    90.00000  Step:         400  Bead:      11 positions{angstrom}  cell{angstrom}
       E -5.75559e+00  9.57395e+00 -5.87403e+00
       E  1.99129e+01  5.24844e+01 -1.92975e+01
       E -3.03875e+01  3.71040e+00  2.01731e+01
3
# CELL(abcABC): 1322.94304  1322.94304  1322.94304    90.00000    90.00000    90.00000  Step:         500  Bead:      11 positions{angstrom}  cell{angstrom}
       E -1.06866e+01  2.56463e+01 -1.56238e+00
       E  1.28912e+01  2.57039e+01  1.03608e+00
       E -1.72889e+01  3.41435e+01  2.55082e+01
3
# CELL(abcABC): 1322.94304  1322.94304  1322.94304    90.00000    90.00000    90.00000  Step:         600  Bead:      11 positions{angstrom}  cell{angstrom}
       E -9.31137e+00  2.17474e+01 -2.97194e+01
       E  7.13845e+00  3.89751e-01  3.33611e+01
       E  1.16714e+01  4.41028e+00  3.18464e+01
3
# CELL(abcABC): 1322.94304  1322.94304  1322.94304    90.00000    90.00000    90.00000  Step:         700  Bead:      11 positions{angstrom}  cell{angstrom}
       E  3.40166e+00  3.57194e+01 -2.80543e+01
       E -3.20278e+00  4.54191e+01  3.02599e+01
       E -8.06321e+00 -1.15160e+01  1.70583e+01
3
# CELL(abcABC): 1322.94304  1322.94304  1322.94304    90.00000    90.00000    90.00000  Step:         800  Bead:      11 positions{angstrom}  cell{angstrom}
       E -3.03207e+01  2.21588e+01 -8.30135e+00
       E  7.96177e+00  4.27734e+01 -3.96984e+00
       E -4.11726e+01  1.40640e+01  4.73123e+01
