3
# CELL(abcABC): 1322.94304  1322.94304  1322.94304    90.00000    90.00000    90.00000  Step:           0  Bead:      28 positions{angstrom}  cell{angstrom}
       E  0.00000e+00  0.00000e+00  0.00000e+00
       E  0.00000e+00  0.00000e+00  0.00000e+00
       E  0.00000e+00  0.00000e+00  0.00000e+00
3
# CELL(abcABC): 1322.94304  1322.94304  1322.94304    90.00000    90.00000    90.00000  Step:         100  Bead:      28 positions{angstrom}  cell{angstrom}
       E -2.37736e+00 -2.53922e+01  5.60348e+00
       E  2.39545e+01 -1.01065e+01  1.41350e+00
       E  6.27630e+00  7.90468e-01 -1.53311e+01
3
# CELL(abcABC): 1322.94304  1322.94304  1322.94304    90.00000    90.00000    90.00000  Step:         200  Bead:      28 positions{angstrom}  cell{angstrom}
       E -2.15938e+00  8.55972e-01  3.00471e+01
       E  2.59626e+01  1.28465e+00 -3.43087e+00
       E  2.46247e+01 -1.65215e+01  2.72259e+01
3
# CELL(abcABC): 1322.94304  1322.94304  1322.94304    90.00000    90.00000    90.00000  Step:         300  Bead:      28 positions{angstrom}  cell{angstrom}
       E  2.29160e+01 -5.24154e+00  1.53481e+01
       E  2.67411e+01 -2.62538e+01  1.46772e+01
       E  2.77671e+00  1.43597e+01  1.68437e+01
3
# CELL(abcABC): 1322.94304  1322.94304  1322.94304    90.00000    90.00000    90.00000  Step:         400  Bead:      28 positions{angstrom}  cell{angstrom}
       E  3.17665e+01 -5.94212e+00 -1.87477e+01
       E  6.98621e+00 -9.74637e+00 -2.63320e+00
       E  3.08252e+00 -2.96385e+00  8.38600e+00
3
# CELL(abcABC): 1322.94304  1322.94304  1322.94304    90.00000    90.00000    90.00000  Step:         500  Bead:      28 positions{angstrom}  cell{angstrom}
       E  2.96236e+01  5.19681e-01 -3.17429e+01
       E  2.71111e+01  1.44134e+01 -1.27399e+00
       E  1.24472e+01 -1.84899e+01  2.65395e+01
3
# CELL(abcABC): 1322.94304  1322.94304  1322.94304    90.00000    90.00000    90.00000  Step:         600  Bead:      28 positions{angstrom}  cell{angstrom}
       E  5.90941e+01 -1.46245e+01  2.07278e+01
       E -7.20286e+00 -2.77402e+01  5.76519e+01
       E  1.17261e+01  8.60485e+00  3.83535e+01
3
# CELL(abcABC): 1322.94304  1322.94304  1322.94304    90.00000    90.00000    90.00000  Step:         700  Bead:      28 positions{angstrom}  cell{angstrom}
       E  3.77658e+01  7.01144e+00 -2.85917e+01
       E -3.46012e+01  1.85431e+01  2.99987e+01
       E -2.39857e+01  2.87816e+01  5.67629e+01
3
# CELL(abcABC): 1322.94304  1322.94304  1322.94304    90.00000    90.00000    90.00000  Step:         800  Bead:      28 positions{angstrom}  cell{angstrom}
       E  6.93934e+01  3.04448e+01 -2.14302e+01
       E -2.02396e+01  2.32629e+00  5.65254e+01
       E -5.57872e+01 -1.74836e+01  6.22139e+01
