3
# CELL(abcABC): 1322.94304  1322.94304  1322.94304    90.00000    90.00000    90.00000  Step:           0  Bead:       2 positions{angstrom}  cell{angstrom}
       E  0.00000e+00  0.00000e+00  0.00000e+00
       E  0.00000e+00  0.00000e+00  0.00000e+00
       E  0.00000e+00  0.00000e+00  0.00000e+00
3
# CELL(abcABC): 1322.94304  1322.94304  1322.94304    90.00000    90.00000    90.00000  Step:         100  Bead:       2 positions{angstrom}  cell{angstrom}
       E -4.12433e+01 -6.09415e+01 -1.83825e+00
       E  1.29778e+01  5.26819e+00 -2.00507e+00
       E -1.33064e+01  4.93306e+00  7.83504e+00
3
# CELL(abcABC): 1322.94304  1322.94304  1322.94304    90.00000    90.00000    90.00000  Step:         200  Bead:       2 positions{angstrom}  cell{angstrom}
       E -1.76665e+01 -1.97899e+01  1.14580e+01
       E  4.86481e+01  1.88868e+01 -8.99541e+00
       E -1.24665e+01  5.03242e+00  2.53541e+01
3
# CELL(abcABC): 1322.94304  1322.94304  1322.94304    90.00000    90.00000    90.00000  Step:         300  Bead:       2 positions{angstrom}  cell{angstrom}
       E  3.56727e+01  1.97368e+00 -2.39206e+01
       E  8.59972e+00  8.98715e+00  5.06278e+00
       E -3.95714e+01  2.19890e+01  1.98885e+01
3
# CELL(abcABC): 1322.94304  1322.94304  1322.94304    90.00000    90.00000    90.00000  Step:         400  Bead:       2 positions{angstrom}  cell{angstrom}
       E  5.14513e+01 -7.79558e+00  2.16787e+00
       E  1.93983e+01  1.02849e+01  2.71377e+01
       E -2.68436e+01  2.83879e+01  1.98258e+01
3
# CELL(abcABC): 1322.94304  1322.94304  1322.94304    90.00000    90.00000    90.00000  Step:         500  Bead:       2 positions{angstrom}  cell{angstrom}
       E  5.19004e+00  1.25771e+00  8.71438e-02
       E  3.54827e+01  1.25701e+01  1.52171e+01
       E -1.77964e+01  1.54942e+01  8.98982e+00
3
# CELL(abcABC): 1322.94304  1322.94304  1322.94304    90.00000    90.00000    90.00000  Step:         600  Bead:       2 positions{angstrom}  cell{angstrom}
       E  1.53422e+01  1.81027e+01 -2.81878e+01
       E -2.85193e+01  1.56891e+00  1.89006e+01
       E -2.17150e+01  2.33404e+01  2.71919e+01
3
# CELL(abcABC): 1322.94304  1322.94304  1322.94304    90.00000    90.00000    90.00000  Step:         700  Bead:       2 positions{angstrom}  cell{angstrom}
       E -1.05384e+01  2.63113e+01 -1.67995e+01
       E -4.67331e-01 -3.78181e-01  3.85973e+01
       E -1.57388e+01 -4.32551e+00  4.11624e+01
3
# CELL(abcABC): 1322.94304  1322.94304  1322.94304    90.00000    90.00000    90.00000  Step:         800  Bead:       2 positions{angstrom}  cell{angstrom}
       E  9.87817e+00  3.33881e+01 -2.38575e+01
       E -1.46624e+01  5.45570e+00  2.13749e+01
       E -2.86391e+01  4.12098e+01  4.61498e+01
