3
# CELL(abcABC): 1322.94304  1322.94304  1322.94304    90.00000    90.00000    90.00000  Step:           0  Bead:      19 positions{angstrom}  cell{angstrom}
       E  0.00000e+00  0.00000e+00  0.00000e+00
       E  0.00000e+00  0.00000e+00  0.00000e+00
       E  0.00000e+00  0.00000e+00  0.00000e+00
3
# CELL(abcABC): 1322.94304  1322.94304  1322.94304    90.00000    90.00000    90.00000  Step:         100  Bead:      19 positions{angstrom}  cell{angstrom}
       E  4.99839e+00  4.55332e-01 -2.41643e+01
       E -2.70320e+01 -5.94963e+01 -2.57107e+01
       E  3.42446e+00  2.26847e+01 -2.71757e+01
3
# CELL(abcABC): 1322.94304  1322.94304  1322.94304    90.00000    90.00000    90.00000  Step:         200  Bead:      19 positions{angstrom}  cell{angstrom}
       E  2.32419e+01  1.39734e+00 -7.17816e+00
       E  3.13041e+01 -3.43625e+01 -2.07424e+01
       E  1.58327e+01  2.86883e+01 -1.59202e+01
3
# CELL(abcABC): 1322.94304  1322.94304  1322.94304    90.00000    90.00000    90.00000  Step:         300  Bead:      19 positions{angstrom}  cell{angstrom}
       E -2.78311e+00  2.39799e+01  1.33786e+01
       E  3.37113e+01 -4.69050e+00  9.54099e+00
       E -1.89169e+01  3.13535e+01 -3.40848e+01
3
# CELL(abcABC): 1322.94304  1322.94304  1322.94304    90.00000    90.00000    90.00000  Step:         400  Bead:      19 positions{angstrom}  cell{angstrom}
       E -1.52319e+01  1.99383e+01 -7.85135e+00
       E  5.29841e+01 -3.62141e+00 -1.24326e+01
       E -6.13371e+01  1.34757e+01 -8.39900e+00
3
# CELL(abcABC): 1322.94304  1322.94304  1322.94304    90.00000    90.00000    90.00000  Step:         500  Bead:      19 positions{angstrom}  cell{angstrom}
       E  6.76655e+00 -1.62358e+01 -1.17641e+01
       E  5.75678e+01  2.85912e+00 -5.86683e+00
       E -2.17180e+01 -6.37280e+00  3.60241e+01
3
# CELL(abcABC): 1322.94304  1322.94304  1322.94304    90.00000    90.00000    90.00000  Step:         600  Bead:      19 positions{angstrom}  cell{angstrom}
       E  9.07492e+00  7.75938e+00 -1.79438e+01
       E  3.49978e+01  1.56229e+00 -2.17065e+01
       E -8.28500e+00 -2.03855e+01  3.76699e+01
3
# CELL(abcABC): 1322.94304  1322.94304  1322.94304    90.00000    90.00000    90.00000  Step:         700  Bead:      19 positions{angstrom}  cell{angstrom}
       E  3.41989e+01  2.83615e+01 -1.11015e+01
       E  3.88585e+01  1.74166e+00 -2.81658e+01
       E -1.43907e+01 -6.50047e+00  4.11330e+01
3
# CELL(abcABC): 1322.94304  1322.94304  1322.94304    90.00000    90.00000    90.00000  Step:         800  Bead:      19 positions{angstrom}  cell{angstrom}
       E -1.07668e+01  9.90486e+00 -3.83688e+00
       E  4.59290e+01  2.33181e+01  2.06943e+00
       E -3.46389e+01 -3.13048e+01  8.59315e+01
