3
# CELL(abcABC): 1322.94304  1322.94304  1322.94304    90.00000    90.00000    90.00000  Step:           0  Bead:      20 positions{angstrom}  cell{angstrom}
       E  0.00000e+00  0.00000e+00  0.00000e+00
       E  0.00000e+00  0.00000e+00  0.00000e+00
       E  0.00000e+00  0.00000e+00  0.00000e+00
3
# CELL(abcABC): 1322.94304  1322.94304  1322.94304    90.00000    90.00000    90.00000  Step:         100  Bead:      20 positions{angstrom}  cell{angstrom}
       E  1.07624e+01 -9.42395e+00 -2.60648e+01
       E -1.97979e+01 -5.46111e+01 -1.76936e+01
       E -1.38037e+01  1.01242e+01 -1.21488e+01
3
# CELL(abcABC): 1322.94304  1322.94304  1322.94304    90.00000    90.00000    90.00000  Step:         200  Bead:      20 positions{angstrom}  cell{angstrom}
       E  2.05250e+01 -1.20231e+01 -4.49654e+00
       E  2.64073e+01 -3.23942e+01  1.65072e+00
       E  2.40369e+01  4.37199e+01 -1.32077e+01
3
# CELL(abcABC): 1322.94304  1322.94304  1322.94304    90.00000    90.00000    90.00000  Step:         300  Bead:      20 positions{angstrom}  cell{angstrom}
       E  1.94001e+01  3.66642e+00  4.26992e+01
       E  2.13321e+01  5.21462e+00  2.64257e+01
       E -2.51364e+01  3.73926e+01 -5.00664e+01
3
# CELL(abcABC): 1322.94304  1322.94304  1322.94304    90.00000    90.00000    90.00000  Step:         400  Bead:      20 positions{angstrom}  cell{angstrom}
       E -3.65832e+01  2.01525e+01 -1.12747e+01
       E  3.35020e+01  1.80978e+01 -3.04562e+01
       E -3.15854e+01  2.25080e+01 -5.26889e-01
3
# CELL(abcABC): 1322.94304  1322.94304  1322.94304    90.00000    90.00000    90.00000  Step:         500  Bead:      20 positions{angstrom}  cell{angstrom}
       E -4.19026e+00 -1.72624e+01 -2.35704e+01
       E  1.90689e+01 -4.42419e+00  2.04199e+00
       E -9.05502e+00 -1.51835e+00  3.08255e+01
3
# CELL(abcABC): 1322.94304  1322.94304  1322.94304    90.00000    90.00000    90.00000  Step:         600  Bead:      20 positions{angstrom}  cell{angstrom}
       E  3.83947e+00  1.35736e+01 -2.32961e+01
       E  2.53164e+01  3.16079e+00 -3.35905e+01
       E -2.80637e+01 -3.17839e+01  3.09380e+01
3
# CELL(abcABC): 1322.94304  1322.94304  1322.94304    90.00000    90.00000    90.00000  Step:         700  Bead:      20 positions{angstrom}  cell{angstrom}
       E  1.89701e+01  1.96594e+01 -1.34155e+01
       E  4.19556e+01  1.69589e+01 -1.00280e+01
       E -1.45077e+01  6.43527e+00  4.70872e+01
3
# CELL(abcABC): 1322.94304  1322.94304  1322.94304    90.00000    90.00000    90.00000  Step:         800  Bead:      20 positions{angstrom}  cell{angstrom}
       E -2.79982e+00  5.27356e+00 -8.57696e+00
       E  5.38350e+01  5.36578e+00 -3.04158e+00
       E -3.37594e+01 -3.89605e+01  8.59844e+01
