3
# CELL(abcABC): 1322.94304  1322.94304  1322.94304    90.00000    90.00000    90.00000  Step:           0  Bead:       3 positions{angstrom}  cell{angstrom}
       E  0.00000e+00  0.00000e+00  0.00000e+00
       E  0.00000e+00  0.00000e+00  0.00000e+00
       E  0.00000e+00  0.00000e+00  0.00000e+00
3
# CELL(abcABC): 1322.94304  1322.94304  1322.94304    90.00000    90.00000    90.00000  Step:         100  Bead:       3 positions{angstrom}  cell{angstrom}
       E -4.02186e+01 -5.86842e+01 -2.72514e+00
       E  1.70510e+01 -5.16814e-01 -8.38020e+00
       E -1.92472e+01  1.15551e+01  1.63926e+01
3
# CELL(abcABC): 1322.94304  1322.94304  1322.94304    90.00000    90.00000    90.00000  Step:         200  Bead:       3 positions{angstrom}  cell{angstrom}
       E -1.40453e+01 -1.08023e+01 -3.12266e+00
       E  3.08008e+01  2.36005e+01 -3.44083e+01
       E -8.80696e+00 -3.14562e+00  1.75825e+01
3
# CELL(abcABC): 1322.94304  1322.94304  1322.94304    90.00000    90.00000    90.00000  Step:         300  Bead:       3 positions{angstrom}  cell{angstrom}
       E  4.98551e+01 -4.30920e+00 -2.11133e+01
       E  1.09488e+01  6.64260e+00 -4.45655e+00
       E -2.67011e+01 -7.64913e+00  4.01837e+01
3
# CELL(abcABC): 1322.94304  1322.94304  1322.94304    90.00000    90.00000    90.00000  Step:         400  Bead:       3 positions{angstrom}  cell{angstrom}
       E  5.45287e+01 -7.61489e-01  1.01323e+01
       E  2.50149e+01 -1.81820e-01 -4.91727e+00
       E -2.93533e+01  1.65559e+01  2.25333e+01
3
# CELL(abcABC): 1322.94304  1322.94304  1322.94304    90.00000    90.00000    90.00000  Step:         500  Bead:       3 positions{angstrom}  cell{angstrom}
       E  9.81408e+00 -2.33980e+00 -7.46464e+00
       E  3.52859e+01  2.11694e+01  1.24138e+01
       E -2.31260e+01  2.81213e+01 -2.46266e-03
3
# CELL(abcABC): 1322.94304  1322.94304  1322.94304    90.00000    90.00000    90.00000  Step:         600  Bead:       3 positions{angstrom}  cell{angstrom}
       E  3.13733e+00  1.64021e+01 -5.54816e+01
       E -1.74013e+01  1.62780e+00  3.14607e+01
       E -1.95477e+01  7.33940e+00  3.23977e+01
3
# CELL(abcABC): 1322.94304  1322.94304  1322.94304    90.00000    90.00000    90.00000  Step:         700  Bead:       3 positions{angstrom}  cell{angstrom}
       E -1.37756e+01  2.43657e+01 -2.53177e+01
       E -6.34083e-01 -2.92191e+00  1.96029e+01
       E -2.32126e+01  8.47297e+00  4.33448e+01
3
# CELL(abcABC): 1322.94304  1322.94304  1322.94304    90.00000    90.00000    90.00000  Step:         800  Bead:       3 positions{angstrom}  cell{angstrom}
       E  2.66519e+00  2.42031e+01 -4.14019e+01
       E -1.78673e+01  1.06069e+01  1.31530e+01
       E -4.59856e+01  3.62898e+01  5.23145e+01
