3
# CELL(abcABC): 1322.94304  1322.94304  1322.94304    90.00000    90.00000    90.00000  Step:           0  Bead:      18 positions{angstrom}  cell{angstrom}
       E  0.00000e+00  0.00000e+00  0.00000e+00
       E  0.00000e+00  0.00000e+00  0.00000e+00
       E  0.00000e+00  0.00000e+00  0.00000e+00
3
# CELL(abcABC): 1322.94304  1322.94304  1322.94304    90.00000    90.00000    90.00000  Step:         100  Bead:      18 positions{angstrom}  cell{angstrom}
       E  2.65602e+01 -1.28003e+01 -2.70098e+01
       E -6.00049e+00 -4.83588e+01 -1.75669e+01
       E -1.21649e+01  3.15364e+01 -3.27478e+01
3
# CELL(abcABC): 1322.94304  1322.94304  1322.94304    90.00000    90.00000    90.00000  Step:         200  Bead:      18 positions{angstrom}  cell{angstrom}
       E  1.31077e+01  8.18810e+00  6.68248e+00
       E  2.10710e+01 -4.10601e+01 -2.63775e+01
       E  8.79398e-01  3.55396e+01 -1.73187e+01
3
# CELL(abcABC): 1322.94304  1322.94304  1322.94304    90.00000    90.00000    90.00000  Step:         300  Bead:      18 positions{angstrom}  cell{angstrom}
       E  4.23639e+00 -1.31430e+01  1.90981e+01
       E  2.99223e+01  5.95705e+00 -1.90703e+01
       E -2.64701e+01  5.08377e+01 -2.20510e+01
3
# CELL(abcABC): 1322.94304  1322.94304  1322.94304    90.00000    90.00000    90.00000  Step:         400  Bead:      18 positions{angstrom}  cell{angstrom}
       E -1.85331e+01  2.67298e+01  2.81418e+01
       E  7.74892e+01  1.51563e+01 -9.59490e+00
       E -4.70993e+01  3.20003e+01  4.01028e+00
3
# CELL(abcABC): 1322.94304  1322.94304  1322.94304    90.00000    90.00000    90.00000  Step:         500  Bead:      18 positions{angstrom}  cell{angstrom}
       E -5.47613e+00  6.76850e-01  5.28182e+00
       E  5.66180e+01  4.55907e+00 -1.11595e+01
       E -3.31626e+01 -1.75529e+01  3.55107e+01
3
# CELL(abcABC): 1322.94304  1322.94304  1322.94304    90.00000    90.00000    90.00000  Step:         600  Bead:      18 positions{angstrom}  cell{angstrom}
       E  2.66968e+00 -2.94593e+01 -2.16367e+01
       E  2.94206e+01  7.63599e+00 -2.76781e+01
       E -1.78655e+01 -1.71956e+01  3.68585e+01
3
# CELL(abcABC): 1322.94304  1322.94304  1322.94304    90.00000    90.00000    90.00000  Step:         700  Bead:      18 positions{angstrom}  cell{angstrom}
       E  1.61792e+01  3.43864e+00  7.22110e+00
       E  5.80682e+01  1.69043e+01 -1.11430e+01
       E -1.17811e+01 -2.45253e+01  3.60917e+01
3
# CELL(abcABC): 1322.94304  1322.94304  1322.94304    90.00000    90.00000    90.00000  Step:         800  Bead:      18 positions{angstrom}  cell{angstrom}
       E  1.39982e+00  1.02851e+01 -4.46740e-01
       E  4.25116e+01  3.03692e+01  1.69691e+01
       E -3.82141e+01 -1.57719e+01  9.67899e+01
