3
# CELL(abcABC): 1322.94304  1322.94304  1322.94304    90.00000    90.00000    90.00000  Step:           0  Bead:      22 positions{angstrom}  cell{angstrom}
       E  0.00000e+00  0.00000e+00  0.00000e+00
       E  0.00000e+00  0.00000e+00  0.00000e+00
       E  0.00000e+00  0.00000e+00  0.00000e+00
3
# CELL(abcABC): 1322.94304  1322.94304  1322.94304    90.00000    90.00000    90.00000  Step:         100  Bead:      22 positions{angstrom}  cell{angstrom}
       E  2.90782e+01  5.00006e+00 -1.81786e+01
       E -1.25806e+01 -3.92156e+01 -1.91621e+01
       E -1.26248e+01  2.86648e+01  4.88841e+00
3
# CELL(abcABC): 1322.94304  1322.94304  1322.94304    90.00000    90.00000    90.00000  Step:         200  Bead:      22 positions{angstrom}  cell{angstrom}
       E -4.62054e-01 -7.17328e+00  6.89545e+00
       E  2.68110e+01 -6.26378e+01 -1.20285e+01
       E  1.46860e+01  3.60205e+01 -5.26746e+00
3
# CELL(abcABC): 1322.94304  1322.94304  1322.94304    90.00000    90.00000    90.00000  Step:         300  Bead:      22 positions{angstrom}  cell{angstrom}
       E  1.36381e+01 -2.11303e+00  2.87057e+01
       E  1.73651e+01 -8.49844e+00  1.93728e+01
       E -1.02165e+01 -1.00560e+01 -1.13970e+01
3
# CELL(abcABC): 1322.94304  1322.94304  1322.94304    90.00000    90.00000    90.00000  Step:         400  Bead:      22 positions{angstrom}  cell{angstrom}
       E  3.86164e+00  3.27448e+00 -3.81777e+00
       E  4.01728e+01 -1.81583e+01 -2.72072e+01
       E -1.93446e+01  1.46969e+01  9.57530e+00
3
# CELL(abcABC): 1322.94304  1322.94304  1322.94304    90.00000    90.00000    90.00000  Step:         500  Bead:      22 positions{angstrom}  cell{angstrom}
       E -2.39755e+00 -2.55098e+00 -3.47541e+01
       E  3.53664e+01 -3.21143e+00 -1.10197e+00
       E -3.49199e+01 -1.03978e+01  1.41624e+01
3
# CELL(abcABC): 1322.94304  1322.94304  1322.94304    90.00000    90.00000    90.00000  Step:         600  Bead:      22 positions{angstrom}  cell{angstrom}
       E  4.69710e+01 -1.26942e+01 -3.85939e+01
       E  3.79639e+01  3.81940e+00 -2.91102e+01
       E -1.81525e+01  4.96436e+00  2.58981e+01
3
# CELL(abcABC): 1322.94304  1322.94304  1322.94304    90.00000    90.00000    90.00000  Step:         700  Bead:      22 positions{angstrom}  cell{angstrom}
       E  3.75559e+01 -1.36210e+01 -1.70614e+01
       E  4.65744e+01 -4.09623e+00  1.65594e+00
       E -3.19263e+01 -1.15227e+01  5.52725e+01
3
# CELL(abcABC): 1322.94304  1322.94304  1322.94304    90.00000    90.00000    90.00000  Step:         800  Bead:      22 positions{angstrom}  cell{angstrom}
       E  2.72548e+01  3.89323e+00  2.92894e+00
       E  5.20677e+01  2.52184e+01  5.89459e+00
       E -3.01003e+01 -2.40428e+01  7.63480e+01
