3
# CELL(abcABC): 1322.94304  1322.94304  1322.94304    90.00000    90.00000    90.00000  Step:           0  Bead:       6 positions{angstrom}  cell{angstrom}
       E  0.00000e+00  0.00000e+00  0.00000e+00
       E  0.00000e+00  0.00000e+00  0.00000e+00
       E  0.00000e+00  0.00000e+00  0.00000e+00
3
# CELL(abcABC): 1322.94304  1322.94304  1322.94304    90.00000    90.00000    90.00000  Step:         100  Bead:       6 positions{angstrom}  cell{angstrom}
       E -2.63931e+01 -2.84021e+01  1.19224e+01
       E -1.05648e+01  8.28007e+00 -1.64671e+01
       E -1.06687e+01 -5.18301e+00 -2.27194e+00
3
# CELL(abcABC): 1322.94304  1322.94304  1322.94304    90.00000    90.00000    90.00000  Step:         200  Bead:       6 positions{angstrom}  cell{angstrom}
       E -2.18853e+01 -3.39251e+01 -9.56376e+00
       E  3.74767e+01  2.00011e+01 -3.01682e+01
       E -3.84144e+01 -1.23450e+00  2.15469e+01
3
# CELL(abcABC): 1322.94304  1322.94304  1322.94304    90.00000    90.00000    90.00000  Step:         300  Bead:       6 positions{angstrom}  cell{angstrom}
       E -1.33122e+01 -3.34936e+01 -2.60153e+01
       E  3.08755e+00  1.08735e+01 -4.12432e+01
       E -3.86015e+01  2.42873e+01  2.30344e+01
3
# CELL(abcABC): 1322.94304  1322.94304  1322.94304    90.00000    90.00000    90.00000  Step:         400  Bead:       6 positions{angstrom}  cell{angstrom}
       E  1.79990e+01  3.41055e+00  2.36637e+01
       E  1.56825e+01  1.56157e+01 -2.53364e+01
       E -1.44334e+01  4.66091e+01  2.86350e+01
3
# CELL(abcABC): 1322.94304  1322.94304  1322.94304    90.00000    90.00000    90.00000  Step:         500  Bead:       6 positions{angstrom}  cell{angstrom}
       E  1.33533e+00  1.44190e+01 -1.36765e+01
       E -1.31564e+01  1.78923e+00 -2.53726e-01
       E -3.51348e+01  2.55105e+01  4.64234e+00
3
# CELL(abcABC): 1322.94304  1322.94304  1322.94304    90.00000    90.00000    90.00000  Step:         600  Bead:       6 positions{angstrom}  cell{angstrom}
       E -2.78049e+01  1.93690e+01 -3.18930e+01
       E -3.50407e-01 -2.12587e+01  2.92055e+01
       E -1.85860e+01 -1.83292e+01  1.07429e+01
3
# CELL(abcABC): 1322.94304  1322.94304  1322.94304    90.00000    90.00000    90.00000  Step:         700  Bead:       6 positions{angstrom}  cell{angstrom}
       E  1.62505e+01  1.14865e+01 -3.26479e+01
       E -3.94158e+00  2.28929e+01  1.82871e+01
       E -1.27927e+01  9.02314e+00  3.11545e+01
3
# CELL(abcABC): 1322.94304  1322.94304  1322.94304    90.00000    90.00000    90.00000  Step:         800  Bead:       6 positions{angstrom}  cell{angstrom}
       E -2.50515e+01  2.20742e+01 -4.74252e+01
       E  1.26101e+01  4.47835e+01 -7.52269e+00
       E -8.59331e+01  2.15846e+01  5.93321e+01
