3
# CELL(abcABC): 1322.94304  1322.94304  1322.94304    90.00000    90.00000    90.00000  Step:           0  Bead:      17 positions{angstrom}  cell{angstrom}
       E  0.00000e+00  0.00000e+00  0.00000e+00
       E  0.00000e+00  0.00000e+00  0.00000e+00
       E  0.00000e+00  0.00000e+00  0.00000e+00
3
# CELL(abcABC): 1322.94304  1322.94304  1322.94304    90.00000    90.00000    90.00000  Step:         100  Bead:      17 positions{angstrom}  cell{angstrom}
       E  1.43288e+01 -1.97908e+01 -1.97847e+01
       E  4.25877e-03 -2.62702e+01 -4.14858e+00
       E -1.89880e+01  1.29888e+01 -2.84171e+01
3
# CELL(abcABC): 1322.94304  1322.94304  1322.94304    90.00000    90.00000    90.00000  Step:         200  Bead:      17 positions{angstrom}  cell{angstrom}
       E  2.76123e+00  6.31913e-02  9.06754e+00
       E  1.69670e+01 -3.37214e+01 -1.33125e+01
       E -1.04364e+00  1.84197e+01 -2.54462e+01
3
# CELL(abcABC): 1322.94304  1322.94304  1322.94304    90.00000    90.00000    90.00000  Step:         300  Bead:      17 positions{angstrom}  cell{angstrom}
       E -1.55428e+01 -2.15670e+01  1.61360e+01
       E  1.61522e+01  1.15717e+00 -2.34146e+01
       E -3.24395e+01  3.57172e+01 -7.14676e+00
3
# CELL(abcABC): 1322.94304  1322.94304  1322.94304    90.00000    90.00000    90.00000  Step:         400  Bead:      17 positions{angstrom}  cell{angstrom}
       E -1.41662e+01  3.47955e+01  1.99858e+01
       E  5.67459e+01  5.52868e+00 -5.24540e+00
       E -2.94285e+01  2.48231e+01  6.22907e+00
3
# CELL(abcABC): 1322.94304  1322.94304  1322.94304    90.00000    90.00000    90.00000  Step:         500  Bead:      17 positions{angstrom}  cell{angstrom}
       E -3.30016e+01  9.13234e+00  3.79197e+00
       E  5.37669e+01  4.94423e+00 -2.25820e+01
       E -1.67254e+01 -1.25976e+01  3.32440e+01
3
# CELL(abcABC): 1322.94304  1322.94304  1322.94304    90.00000    90.00000    90.00000  Step:         600  Bead:      17 positions{angstrom}  cell{angstrom}
       E -5.20555e+00 -2.71825e+01 -1.18263e+01
       E  2.85035e+01  1.33586e+01 -1.47485e+01
       E -2.60475e+01 -1.68720e+01  3.74488e+01
3
# CELL(abcABC): 1322.94304  1322.94304  1322.94304    90.00000    90.00000    90.00000  Step:         700  Bead:      17 positions{angstrom}  cell{angstrom}
       E -4.27415e-01  7.47828e+00  4.55570e+00
       E  5.55970e+01  3.85208e+01 -1.04700e+01
       E -1.35030e+01 -3.51965e+01  2.25427e+01
3
# CELL(abcABC): 1322.94304  1322.94304  1322.94304    90.00000    90.00000    90.00000  Step:         800  Bead:      17 positions{angstrom}  cell{angstrom}
       E -1.55356e+00  1.32536e+01 -2.74377e+00
       E  3.39889e+01  2.61563e+01  1.63542e+01
       E -5.80028e+01 -3.98771e+01  9.11275e+01
