3
# CELL(abcABC): 1322.94304  1322.94304  1322.94304    90.00000    90.00000    90.00000  Step:           0  Bead:      31 positions{angstrom}  cell{angstrom}
       E  0.00000e+00  0.00000e+00  0.00000e+00
       E  0.00000e+00  0.00000e+00  0.00000e+00
       E  0.00000e+00  0.00000e+00  0.00000e+00
3
# CELL(abcABC): 1322.94304  1322.94304  1322.94304    90.00000    90.00000    90.00000  Step:         100  Bead:      31 positions{angstrom}  cell{angstrom}
       E -1.88906e+01 -5.06013e+01 -1.95185e+00
       E  9.66092e+00  1.48107e+01 -2.85070e+01
       E  2.98795e+01 -1.75918e+01  7.77949e+00
3
# CELL(abcABC): 1322.94304  1322.94304  1322.94304    90.00000    90.00000    90.00000  Step:         200  Bead:      31 positions{angstrom}  cell{angstrom}
       E -1.53580e+01 -3.80444e+00  3.07667e+01
       E  4.54383e+01  1.71785e+01 -5.35529e-01
       E -3.00538e+01 -2.16723e+00  5.59728e+00
3
# CELL(abcABC): 1322.94304  1322.94304  1322.94304    90.00000    90.00000    90.00000  Step:         300  Bead:      31 positions{angstrom}  cell{angstrom}
       E  4.12152e+01 -1.56372e+01 -7.74639e+00
       E  2.46249e+01 -1.32572e+01  7.98644e+00
       E -2.89944e+01  4.13139e+01  1.09483e+00
3
# CELL(abcABC): 1322.94304  1322.94304  1322.94304    90.00000    90.00000    90.00000  Step:         400  Bead:      31 positions{angstrom}  cell{angstrom}
       E  4.18351e+01  1.14621e+01 -2.11727e+01
       E  5.81036e+01  4.04615e+00 -9.77231e+00
       E -4.90300e+00  2.21616e+01 -2.03546e+00
3
# CELL(abcABC): 1322.94304  1322.94304  1322.94304    90.00000    90.00000    90.00000  Step:         500  Bead:      31 positions{angstrom}  cell{angstrom}
       E  1.77125e+01  2.29249e+00 -3.56326e+00
       E  3.51572e+01  4.32211e+00 -1.14042e+01
       E -1.67225e+01  1.60952e+01  2.62830e+01
3
# CELL(abcABC): 1322.94304  1322.94304  1322.94304    90.00000    90.00000    90.00000  Step:         600  Bead:      31 positions{angstrom}  cell{angstrom}
       E  1.80321e+01 -1.06310e+01 -9.98453e+00
       E -3.19557e+01  6.36976e+00  1.26823e+01
       E -4.26521e+00  1.80342e+01  2.66700e+01
3
# CELL(abcABC): 1322.94304  1322.94304  1322.94304    90.00000    90.00000    90.00000  Step:         700  Bead:      31 positions{angstrom}  cell{angstrom}
       E  6.06709e+00  1.14906e+01 -4.11873e+01
       E -3.55644e+01  2.70252e+01  2.81517e+01
       E -3.89032e+01 -4.36586e+00  4.25691e+01
3
# CELL(abcABC): 1322.94304  1322.94304  1322.94304    90.00000    90.00000    90.00000  Step:         800  Bead:      31 positions{angstrom}  cell{angstrom}
       E  2.55284e+01  2.17785e+01 -1.61535e+01
       E -8.37695e+00  3.63854e+01  4.04695e+01
       E -4.33318e+01 -2.75140e+01  2.41666e+01
