3
# CELL(abcABC): 1322.94304  1322.94304  1322.94304    90.00000    90.00000    90.00000  Step:           0  Bead:      21 positions{angstrom}  cell{angstrom}
       E  0.00000e+00  0.00000e+00  0.00000e+00
       E  0.00000e+00  0.00000e+00  0.00000e+00
       E  0.00000e+00  0.00000e+00  0.00000e+00
3
# CELL(abcABC): 1322.94304  1322.94304  1322.94304    90.00000    90.00000    90.00000  Step:         100  Bead:      21 positions{angstrom}  cell{angstrom}
       E  3.29803e+01 -9.86484e+00 -2.71084e+01
       E -3.35242e+01 -4.13738e+01 -1.69579e+01
       E -1.74346e+01  3.02216e+00 -5.59872e+00
3
# CELL(abcABC): 1322.94304  1322.94304  1322.94304    90.00000    90.00000    90.00000  Step:         200  Bead:      21 positions{angstrom}  cell{angstrom}
       E  2.71309e+01 -3.78683e+00 -4.54227e+00
       E  3.42645e+01 -3.28774e+01 -5.54028e+00
       E  2.68466e+01  4.25919e+01 -1.73513e+01
3
# CELL(abcABC): 1322.94304  1322.94304  1322.94304    90.00000    90.00000    90.00000  Step:         300  Bead:      21 positions{angstrom}  cell{angstrom}
       E  1.61171e+01 -3.08910e+00  3.07742e+01
       E  2.81734e+01  1.09221e+01  2.07777e+01
       E -3.45759e+01  6.15366e+00 -2.09216e+01
3
# CELL(abcABC): 1322.94304  1322.94304  1322.94304    90.00000    90.00000    90.00000  Step:         400  Bead:      21 positions{angstrom}  cell{angstrom}
       E -2.70117e+00  2.19919e+01 -9.03082e+00
       E  3.78517e+01 -1.03301e+01 -3.29664e+01
       E -3.48021e+01  2.25101e+01  1.34356e+00
3
# CELL(abcABC): 1322.94304  1322.94304  1322.94304    90.00000    90.00000    90.00000  Step:         500  Bead:      21 positions{angstrom}  cell{angstrom}
       E  3.94682e+00 -8.72536e+00 -5.33690e+00
       E  3.45566e+01  9.80496e+00 -8.59826e+00
       E -2.52757e+01 -1.89819e+01  3.00796e+01
3
# CELL(abcABC): 1322.94304  1322.94304  1322.94304    90.00000    90.00000    90.00000  Step:         600  Bead:      21 positions{angstrom}  cell{angstrom}
       E  1.65433e+01 -1.72341e+00 -1.77052e+01
       E  2.39224e+01 -3.41015e+00 -2.31926e+01
       E -1.05805e+01 -9.14993e+00  2.52831e+01
3
# CELL(abcABC): 1322.94304  1322.94304  1322.94304    90.00000    90.00000    90.00000  Step:         700  Bead:      21 positions{angstrom}  cell{angstrom}
       E  3.35848e+01 -1.24403e+01 -5.79457e+00
       E  4.56222e+01  1.57179e+01  1.50205e+01
       E -4.07333e+01 -1.19148e+01  3.87466e+01
3
# CELL(abcABC): 1322.94304  1322.94304  1322.94304    90.00000    90.00000    90.00000  Step:         800  Bead:      21 positions{angstrom}  cell{angstrom}
       E  1.27121e+01  3.95012e+00 -1.62070e+01
       E  5.15312e+01  3.40592e+01  2.86215e+00
       E -3.64811e+01 -2.35838e+01  9.01450e+01
