3
# CELL(abcABC): 1322.94304  1322.94304  1322.94304    90.00000    90.00000    90.00000  Step:           0  Bead:      24 positions{angstrom}  cell{angstrom}
       E  0.00000e+00  0.00000e+00  0.00000e+00
       E  0.00000e+00  0.00000e+00  0.00000e+00
       E  0.00000e+00  0.00000e+00  0.00000e+00
3
# CELL(abcABC): 1322.94304  1322.94304  1322.94304    90.00000    90.00000    90.00000  Step:         100  Bead:      24 positions{angstrom}  cell{angstrom}
       E  2.50244e+01 -1.69484e+01 -3.48550e+00
       E  7.69484e+00 -4.16508e+01 -9.49617e+00
       E -1.59181e+01  7.56302e+00 -1.23540e+00
3
# CELL(abcABC): 1322.94304  1322.94304  1322.94304    90.00000    90.00000    90.00000  Step:         200  Bead:      24 positions{angstrom}  cell{angstrom}
       E -2.45690e+01 -1.54491e+01  3.59715e+01
       E  3.22013e+00 -6.52689e+01  3.98134e+00
       E  1.63883e+01  4.51879e+01 -2.13725e-01
3
# CELL(abcABC): 1322.94304  1322.94304  1322.94304    90.00000    90.00000    90.00000  Step:         300  Bead:      24 positions{angstrom}  cell{angstrom}
       E  1.19825e+01 -1.65001e+01  4.18698e+01
       E  7.00591e+00 -1.87438e+01  1.57050e+01
       E -8.88592e-01  9.82600e+00 -3.06603e+00
3
# CELL(abcABC): 1322.94304  1322.94304  1322.94304    90.00000    90.00000    90.00000  Step:         400  Bead:      24 positions{angstrom}  cell{angstrom}
       E  2.25689e+01 -4.90304e+00 -1.10571e+01
       E  2.08829e+01 -4.45927e+01 -2.25929e+01
       E  2.01081e+00  3.93276e+00  2.80205e+00
3
# CELL(abcABC): 1322.94304  1322.94304  1322.94304    90.00000    90.00000    90.00000  Step:         500  Bead:      24 positions{angstrom}  cell{angstrom}
       E  3.13654e+01 -2.50091e+01 -5.29755e+01
       E  2.74855e+01 -2.18342e+00  1.12155e+01
       E -6.81542e+00  4.41663e+00  4.34200e+01
3
# CELL(abcABC): 1322.94304  1322.94304  1322.94304    90.00000    90.00000    90.00000  Step:         600  Bead:      24 positions{angstrom}  cell{angstrom}
       E  5.28784e+01 -6.23435e+00 -1.80776e+01
       E  1.16920e+01 -1.12326e+01  2.02087e+01
       E -1.89532e+01  3.35861e+01  1.62657e+01
3
# CELL(abcABC): 1322.94304  1322.94304  1322.94304    90.00000    90.00000    90.00000  Step:         700  Bead:      24 positions{angstrom}  cell{angstrom}
       E  3.68516e+01 -1.71047e+01 -4.22163e+00
       E  2.49802e+01 -1.81727e+01  1.63905e+01
       E -3.24209e+01 -8.47882e+00  6.08164e+01
3
# CELL(abcABC): 1322.94304  1322.94304  1322.94304    90.00000    90.00000    90.00000  Step:         800  Bead:      24 positions{angstrom}  cell{angstrom}
       E  4.29315e+01  2.88755e+00 -7.90862e+00
       E  2.51123e+01  1.62934e+01  2.22004e+01
       E -6.25748e+01 -6.78945e+00  3.40559e+01
