3
# CELL(abcABC): 1322.94304  1322.94304  1322.94304    90.00000    90.00000    90.00000  Step:           0  Bead:      30 positions{angstrom}  cell{angstrom}
       E  0.00000e+00  0.00000e+00  0.00000e+00
       E  0.00000e+00  0.00000e+00  0.00000e+00
       E  0.00000e+00  0.00000e+00  0.00000e+00
3
# CELL(abcABC): 1322.94304  1322.94304  1322.94304    90.00000    90.00000    90.00000  Step:         100  Bead:      30 positions{angstrom}  cell{angstrom}
       E -6.09853e+00 -5.50282e+01  5.88313e-01
       E  1.38366e+01  6.44180e+00 -1.23180e+00
       E  1.25376e+01 -6.17853e+00 -5.88791e+00
3
# CELL(abcABC): 1322.94304  1322.94304  1322.94304    90.00000    90.00000    90.00000  Step:         200  Bead:      30 positions{angstrom}  cell{angstrom}
       E -1.57470e+01 -1.44806e+01  3.71344e+01
       E  3.78011e+01  2.18093e+01  1.93367e+01
       E -1.41230e+01 -7.30487e+00  1.27937e+00
3
# CELL(abcABC): 1322.94304  1322.94304  1322.94304    90.00000    90.00000    90.00000  Step:         300  Bead:      30 positions{angstrom}  cell{angstrom}
       E  2.94902e+01 -2.13259e+01  2.47043e+01
       E  3.71119e+01 -6.49705e-01  6.90974e+00
       E -9.89599e+00  3.42752e+01  7.86839e+00
3
# CELL(abcABC): 1322.94304  1322.94304  1322.94304    90.00000    90.00000    90.00000  Step:         400  Bead:      30 positions{angstrom}  cell{angstrom}
       E  3.66263e+01  4.23467e+00 -2.33638e+01
       E  4.81727e+01 -3.12482e+00 -2.20755e+01
       E  1.74187e+00  1.67298e+01  6.24896e+00
3
# CELL(abcABC): 1322.94304  1322.94304  1322.94304    90.00000    90.00000    90.00000  Step:         500  Bead:      30 positions{angstrom}  cell{angstrom}
       E  3.12243e+01  4.13602e+00 -3.86725e+00
       E  2.71684e+01 -7.22244e+00  9.80703e+00
       E -1.32648e+01  4.49667e-01  2.07047e+01
3
# CELL(abcABC): 1322.94304  1322.94304  1322.94304    90.00000    90.00000    90.00000  Step:         600  Bead:      30 positions{angstrom}  cell{angstrom}
       E  2.46720e+01  1.67232e+00  1.44522e+01
       E -4.70052e+01 -1.68537e+01  2.45958e+01
       E -6.38357e+00  2.76621e+01  2.37210e+01
3
# CELL(abcABC): 1322.94304  1322.94304  1322.94304    90.00000    90.00000    90.00000  Step:         700  Bead:      30 positions{angstrom}  cell{angstrom}
       E -5.79265e+00 -8.18464e-01 -3.14766e+01
       E -3.80362e+01  2.46264e+01  3.86903e+01
       E -3.86881e+01  1.34221e+01  3.99826e+01
3
# CELL(abcABC): 1322.94304  1322.94304  1322.94304    90.00000    90.00000    90.00000  Step:         800  Bead:      30 positions{angstrom}  cell{angstrom}
       E  3.55743e+01  1.77634e+01 -2.60078e+01
       E -9.69944e+00  3.39214e+01  2.89241e+01
       E -3.92650e+01 -2.76127e+01  4.30074e+01
