3
# CELL(abcABC): 1322.94304  1322.94304  1322.94304    90.00000    90.00000    90.00000  Step:           0  Bead:      14 positions{angstrom}  cell{angstrom}
       E  0.00000e+00  0.00000e+00  0.00000e+00
       E  0.00000e+00  0.00000e+00  0.00000e+00
       E  0.00000e+00  0.00000e+00  0.00000e+00
3
# CELL(abcABC): 1322.94304  1322.94304  1322.94304    90.00000    90.00000    90.00000  Step:         100  Bead:      14 positions{angstrom}  cell{angstrom}
       E  6.28014e+00 -7.14512e+00  2.31071e+01
       E  4.01073e+01 -1.33134e+01 -9.54008e+00
       E -1.36359e+01  1.70727e+01 -2.91993e+01
3
# CELL(abcABC): 1322.94304  1322.94304  1322.94304    90.00000    90.00000    90.00000  Step:         200  Bead:      14 positions{angstrom}  cell{angstrom}
       E -2.40245e+00  1.39062e+01 -5.36313e+00
       E  2.38972e+01 -2.50110e+01 -2.23437e+01
       E -2.14754e+01  1.06077e+01 -5.58105e+00
3
# CELL(abcABC): 1322.94304  1322.94304  1322.94304    90.00000    90.00000    90.00000  Step:         300  Bead:      14 positions{angstrom}  cell{angstrom}
       E -2.35728e+01  2.40774e+01  8.26229e+00
       E  2.29013e+01  9.79318e-01 -3.13848e+01
       E -3.02087e+01  3.23810e+01  1.09282e+01
3
# CELL(abcABC): 1322.94304  1322.94304  1322.94304    90.00000    90.00000    90.00000  Step:         400  Bead:      14 positions{angstrom}  cell{angstrom}
       E -2.95098e+01  2.35983e+01  3.08435e+01
       E  3.85052e+01  2.92348e+01 -1.31906e+01
       E -3.46589e+01  2.07195e+01  2.98924e+01
3
# CELL(abcABC): 1322.94304  1322.94304  1322.94304    90.00000    90.00000    90.00000  Step:         500  Bead:      14 positions{angstrom}  cell{angstrom}
       E -2.47559e+01  1.59608e+01  8.26264e+00
       E  7.38817e+01  3.44846e+01 -2.22544e+01
       E  5.34896e-01  1.56860e+01  3.37271e+01
3
# CELL(abcABC): 1322.94304  1322.94304  1322.94304    90.00000    90.00000    90.00000  Step:         600  Bead:      14 positions{angstrom}  cell{angstrom}
       E  2.67596e+00  1.62216e+00 -3.62970e+01
       E  3.82562e+01 -7.47819e+00  6.17602e+00
       E -1.44061e+01 -7.70858e+00  2.38982e+01
3
# CELL(abcABC): 1322.94304  1322.94304  1322.94304    90.00000    90.00000    90.00000  Step:         700  Bead:      14 positions{angstrom}  cell{angstrom}
       E -3.11711e+01  1.76094e+01 -3.78842e+01
       E  1.21148e+01  4.73240e+01  1.73612e+01
       E -1.54350e+01  1.99672e+01  2.05621e+01
3
# CELL(abcABC): 1322.94304  1322.94304  1322.94304    90.00000    90.00000    90.00000  Step:         800  Bead:      14 positions{angstrom}  cell{angstrom}
       E -1.35301e+01  3.09734e+01  1.67955e+01
       E  3.81014e+00  5.03491e+01 -4.69960e+00
       E -3.55986e+01 -5.45469e+00  4.17743e+01
