3
# CELL(abcABC): 1322.94304  1322.94304  1322.94304    90.00000    90.00000    90.00000  Step:           0  Bead:      13 positions{angstrom}  cell{angstrom}
       E  0.00000e+00  0.00000e+00  0.00000e+00
       E  0.00000e+00  0.00000e+00  0.00000e+00
       E  0.00000e+00  0.00000e+00  0.00000e+00
3
# CELL(abcABC): 1322.94304  1322.94304  1322.94304    90.00000    90.00000    90.00000  Step:         100  Bead:      13 positions{angstrom}  cell{angstrom}
       E -1.13360e+01 -1.70872e+01  1.39569e+01
       E  3.64587e+01  4.04222e+00  8.03074e-01
       E -3.52297e+01  9.52788e+00 -2.53703e+01
3
# CELL(abcABC): 1322.94304  1322.94304  1322.94304    90.00000    90.00000    90.00000  Step:         200  Bead:      13 positions{angstrom}  cell{angstrom}
       E  7.50469e+00  3.89191e+00  4.98585e+00
       E  2.59137e+01 -9.12626e+00 -3.54971e+01
       E -4.70224e+01  1.60653e-01 -4.04300e+00
3
# CELL(abcABC): 1322.94304  1322.94304  1322.94304    90.00000    90.00000    90.00000  Step:         300  Bead:      13 positions{angstrom}  cell{angstrom}
       E -1.82789e+01  3.77368e+01 -1.24420e+00
       E  2.75024e+01 -9.61144e-01 -4.69259e+01
       E -4.41756e+01  2.83583e+01  1.90292e+01
3
# CELL(abcABC): 1322.94304  1322.94304  1322.94304    90.00000    90.00000    90.00000  Step:         400  Bead:      13 positions{angstrom}  cell{angstrom}
       E -2.32414e+01  1.84407e+01  1.31642e+01
       E  3.05991e+01  4.63262e+01 -1.69125e+01
       E -3.21000e+01  2.96731e+01  8.61499e+00
3
# CELL(abcABC): 1322.94304  1322.94304  1322.94304    90.00000    90.00000    90.00000  Step:         500  Bead:      13 positions{angstrom}  cell{angstrom}
       E -2.40307e+01  1.87941e+01 -1.87852e+01
       E  5.12337e+01  3.55270e+01 -1.37148e+01
       E  2.05513e+00  9.09054e+00  3.19887e+01
3
# CELL(abcABC): 1322.94304  1322.94304  1322.94304    90.00000    90.00000    90.00000  Step:         600  Bead:      13 positions{angstrom}  cell{angstrom}
       E  1.93856e+01  1.43598e+01 -4.22616e+01
       E  3.58691e+01 -8.42843e-01  1.99830e+01
       E -4.95946e+00 -1.72980e+01  2.39512e+01
3
# CELL(abcABC): 1322.94304  1322.94304  1322.94304    90.00000    90.00000    90.00000  Step:         700  Bead:      13 positions{angstrom}  cell{angstrom}
       E -3.29357e+01  2.41909e+01 -2.48612e+01
       E  2.73679e+01  3.75754e+01  3.25714e+01
       E -4.63156e+00  1.08769e+01  3.75941e+01
3
# CELL(abcABC): 1322.94304  1322.94304  1322.94304    90.00000    90.00000    90.00000  Step:         800  Bead:      13 positions{angstrom}  cell{angstrom}
       E -8.58008e+00  1.06987e+01 -9.59713e+00
       E -1.98287e+01  4.59120e+01 -1.85369e+01
       E -3.22828e+01  5.88242e+00  4.92762e+01
