3
# CELL(abcABC): 1322.94304  1322.94304  1322.94304    90.00000    90.00000    90.00000  Step:           0  Bead:       5 positions{angstrom}  cell{angstrom}
       E  0.00000e+00  0.00000e+00  0.00000e+00
       E  0.00000e+00  0.00000e+00  0.00000e+00
       E  0.00000e+00  0.00000e+00  0.00000e+00
3
# CELL(abcABC): 1322.94304  1322.94304  1322.94304    90.00000    90.00000    90.00000  Step:         100  Bead:       5 positions{angstrom}  cell{angstrom}
       E -3.46025e+01 -3.89951e+01  5.95907e+00
       E  7.03197e+00  1.54188e+01 -2.59780e+00
       E -2.54670e+01 -3.37471e+00  3.03082e+00
3
# CELL(abcABC): 1322.94304  1322.94304  1322.94304    90.00000    90.00000    90.00000  Step:         200  Bead:       5 positions{angstrom}  cell{angstrom}
       E -3.61243e+01 -1.59674e+01  1.23874e+00
       E  3.74077e+01  3.60240e+01 -2.96464e+01
       E -4.72740e+01 -5.67616e+00  2.79855e+01
3
# CELL(abcABC): 1322.94304  1322.94304  1322.94304    90.00000    90.00000    90.00000  Step:         300  Bead:       5 positions{angstrom}  cell{angstrom}
       E -2.48607e+00 -3.62380e+01 -3.16581e+01
       E  1.37474e+01  1.15915e+01 -4.84018e+01
       E -3.81744e+01  1.37570e+01  3.77670e+01
3
# CELL(abcABC): 1322.94304  1322.94304  1322.94304    90.00000    90.00000    90.00000  Step:         400  Bead:       5 positions{angstrom}  cell{angstrom}
       E  2.24987e+01  1.86156e+01  1.61343e+01
       E  8.06432e+00  1.26598e+01 -2.05800e+01
       E -2.56423e+01  3.61596e+01  4.52339e+01
3
# CELL(abcABC): 1322.94304  1322.94304  1322.94304    90.00000    90.00000    90.00000  Step:         500  Bead:       5 positions{angstrom}  cell{angstrom}
       E -9.55975e+00  5.04297e+00 -2.42180e+01
       E -2.92832e-01 -2.61709e-01  8.77714e+00
       E -1.39217e+01  2.44294e+01 -1.67065e+01
3
# CELL(abcABC): 1322.94304  1322.94304  1322.94304    90.00000    90.00000    90.00000  Step:         600  Bead:       5 positions{angstrom}  cell{angstrom}
       E -1.38820e+01  1.22999e+01 -4.01744e+01
       E  3.55488e+00 -1.19706e+01  2.26301e+01
       E -3.14541e+01  1.27183e+01  2.37088e+01
3
# CELL(abcABC): 1322.94304  1322.94304  1322.94304    90.00000    90.00000    90.00000  Step:         700  Bead:       5 positions{angstrom}  cell{angstrom}
       E -6.61325e+00  1.17658e+01 -2.38059e+01
       E  7.85770e-02  1.23218e+01  8.68975e+00
       E -1.93401e+01  7.75794e+00  2.85745e+01
3
# CELL(abcABC): 1322.94304  1322.94304  1322.94304    90.00000    90.00000    90.00000  Step:         800  Bead:       5 positions{angstrom}  cell{angstrom}
       E -2.41049e+01  2.28638e+00 -4.47830e+01
       E -2.11042e+01  3.05805e+01 -9.91674e+00
       E -5.06702e+01  2.30126e+01  6.26200e+01
