3
# CELL(abcABC): 1322.94304  1322.94304  1322.94304    90.00000    90.00000    90.00000  Step:           0  Bead:       8 positions{angstrom}  cell{angstrom}
       E  0.00000e+00  0.00000e+00  0.00000e+00
       E  0.00000e+00  0.00000e+00  0.00000e+00
       E  0.00000e+00  0.00000e+00  0.00000e+00
3
# CELL(abcABC): 1322.94304  1322.94304  1322.94304    90.00000    90.00000    90.00000  Step:         100  Bead:       8 positions{angstrom}  cell{angstrom}
       E -3.99842e+01  4.55474e+00  1.34914e+01
       E -2.78058e+01 -2.30801e-01 -3.15524e+01
       E -2.02165e+01  5.06824e+00 -1.47145e+01
3
# CELL(abcABC): 1322.94304  1322.94304  1322.94304    90.00000    90.00000    90.00000  Step:         200  Bead:       8 positions{angstrom}  cell{angstrom}
       E -1.19722e+01 -2.80682e+01 -4.93787e+01
       E  4.01299e+01  3.72648e+01 -4.13237e+01
       E -4.93024e+01 -3.38686e+00  4.97428e-01
3
# CELL(abcABC): 1322.94304  1322.94304  1322.94304    90.00000    90.00000    90.00000  Step:         300  Bead:       8 positions{angstrom}  cell{angstrom}
       E -2.21676e+01 -2.05012e+01 -2.27326e+01
       E  2.96223e+01  2.76580e+00 -3.63005e+01
       E -3.65189e+01 -9.60247e+00  6.29972e+00
3
# CELL(abcABC): 1322.94304  1322.94304  1322.94304    90.00000    90.00000    90.00000  Step:         400  Bead:       8 positions{angstrom}  cell{angstrom}
       E  1.15293e+00  2.16995e+01  1.21582e+00
       E  4.21971e+00  3.37720e+01 -2.25168e+01
       E -2.30399e+01  1.46793e+01  8.98254e+00
3
# CELL(abcABC): 1322.94304  1322.94304  1322.94304    90.00000    90.00000    90.00000  Step:         500  Bead:       8 positions{angstrom}  cell{angstrom}
       E -2.01049e+01  1.16260e+01  6.47602e+00
       E  1.55752e+01  3.86224e+00  4.79317e+00
       E -2.32601e+01  2.79207e+00  2.01984e+01
3
# CELL(abcABC): 1322.94304  1322.94304  1322.94304    90.00000    90.00000    90.00000  Step:         600  Bead:       8 positions{angstrom}  cell{angstrom}
       E -3.10423e+01  4.19952e+01 -3.87360e+01
       E -2.23118e+01 -1.69296e+01  1.96341e+01
       E  6.18781e+00 -1.44361e+01  9.24465e+00
3
# CELL(abcABC): 1322.94304  1322.94304  1322.94304    90.00000    90.00000    90.00000  Step:         700  Bead:       8 positions{angstrom}  cell{angstrom}
       E  1.36758e+01  1.97804e+01 -3.72104e+01
       E -2.03134e+00  2.70877e+01  2.30340e+01
       E -3.69892e-01 -1.25622e+01  3.96632e+01
3
# CELL(abcABC): 1322.94304  1322.94304  1322.94304    90.00000    90.00000    90.00000  Step:         800  Bead:       8 positions{angstrom}  cell{angstrom}
       E -4.59711e+01  3.08083e+01 -3.64990e+01
       E  2.76181e+01  5.40421e+01  2.70713e+01
       E -6.54201e+01  1.51640e+01  8.33558e+01
