3
# CELL(abcABC): 1322.94304  1322.94304  1322.94304    90.00000    90.00000    90.00000  Step:           0  Bead:       7 positions{angstrom}  cell{angstrom}
       E  0.00000e+00  0.00000e+00  0.00000e+00
       E  0.00000e+00  0.00000e+00  0.00000e+00
       E  0.00000e+00  0.00000e+00  0.00000e+00
3
# CELL(abcABC): 1322.94304  1322.94304  1322.94304    90.00000    90.00000    90.00000  Step:         100  Bead:       7 positions{angstrom}  cell{angstrom}
       E -2.66087e+01 -1.57225e+01 -2.70758e+00
       E -4.63419e+00  6.94585e+00 -1.05115e+01
       E -2.45907e+01 -5.01015e-01 -1.63589e+01
3
# CELL(abcABC): 1322.94304  1322.94304  1322.94304    90.00000    90.00000    90.00000  Step:         200  Bead:       7 positions{angstrom}  cell{angstrom}
       E -1.72949e+01 -3.14815e+01 -4.83475e+01
       E  2.67177e+01  3.02839e+01 -5.51216e+01
       E -4.67366e+01 -7.24752e-01 -8.16708e+00
3
# CELL(abcABC): 1322.94304  1322.94304  1322.94304    90.00000    90.00000    90.00000  Step:         300  Bead:       7 positions{angstrom}  cell{angstrom}
       E -1.27639e+01 -3.47540e+01 -2.94398e+01
       E  7.27885e+00  1.82151e+01 -4.14077e+01
       E -3.23635e+01  8.04237e+00  1.70346e+01
3
# CELL(abcABC): 1322.94304  1322.94304  1322.94304    90.00000    90.00000    90.00000  Step:         400  Bead:       7 positions{angstrom}  cell{angstrom}
       E  8.96933e+00  2.22407e+01  1.29441e+01
       E  9.31217e+00  1.61643e+01 -2.58179e+01
       E -1.51116e+01  3.61381e+01  2.84934e+01
3
# CELL(abcABC): 1322.94304  1322.94304  1322.94304    90.00000    90.00000    90.00000  Step:         500  Bead:       7 positions{angstrom}  cell{angstrom}
       E -8.39242e+00  1.16186e+01 -1.37664e+01
       E  1.07670e+01 -8.91520e+00  4.61474e+00
       E -3.09743e+01  1.35582e+01  1.79306e+01
3
# CELL(abcABC): 1322.94304  1322.94304  1322.94304    90.00000    90.00000    90.00000  Step:         600  Bead:       7 positions{angstrom}  cell{angstrom}
       E -2.83872e+01  2.88286e+01 -2.98252e+01
       E -1.92074e+01 -1.14353e+01  3.02815e+01
       E -8.67768e+00 -1.13285e+01  1.02378e+01
3
# CELL(abcABC): 1322.94304  1322.94304  1322.94304    90.00000    90.00000    90.00000  Step:         700  Bead:       7 positions{angstrom}  cell{angstrom}
       E  1.62194e+01  2.07579e+01 -5.18473e+01
       E -1.13120e+01  3.51132e+01  3.03212e+01
       E -1.31074e+00 -1.64309e+01  2.97042e+01
3
# CELL(abcABC): 1322.94304  1322.94304  1322.94304    90.00000    90.00000    90.00000  Step:         800  Bead:       7 positions{angstrom}  cell{angstrom}
       E -4.14175e+01  2.57480e+01 -4.75766e+01
       E  2.55387e+01  6.65283e+01  5.68350e+00
       E -6.99171e+01  2.31226e+01  7.98424e+01
