3
# CELL(abcABC): 1322.94304  1322.94304  1322.94304    90.00000    90.00000    90.00000  Step:           0  Bead:      27 positions{angstrom}  cell{angstrom}
       E  0.00000e+00  0.00000e+00  0.00000e+00
       E  0.00000e+00  0.00000e+00  0.00000e+00
       E  0.00000e+00  0.00000e+00  0.00000e+00
3
# CELL(abcABC): 1322.94304  1322.94304  1322.94304    90.00000    90.00000    90.00000  Step:         100  Bead:      27 positions{angstrom}  cell{angstrom}
       E  6.09087e+00 -2.54657e+01  1.15555e+00
       E  1.44430e+01 -2.23937e+01  4.22880e+00
       E  1.51107e+01 -1.30628e+01 -1.16790e+01
3
# CELL(abcABC): 1322.94304  1322.94304  1322.94304    90.00000    90.00000    90.00000  Step:         200  Bead:      27 positions{angstrom}  cell{angstrom}
       E -1.28834e+01 -4.88269e+00  3.80333e+01
       E  5.23184e-02 -2.01328e+01  1.24322e+01
       E  2.55064e+01 -1.14549e+01  9.53020e+00
3
# CELL(abcABC): 1322.94304  1322.94304  1322.94304    90.00000    90.00000    90.00000  Step:         300  Bead:      27 positions{angstrom}  cell{angstrom}
       E  8.33353e+00 -1.06554e+01  3.00290e+00
       E  3.25970e+01 -3.43481e+01  6.82666e+00
       E  2.11776e+01  9.25414e-01  6.55528e+00
3
# CELL(abcABC): 1322.94304  1322.94304  1322.94304    90.00000    90.00000    90.00000  Step:         400  Bead:      27 positions{angstrom}  cell{angstrom}
       E  1.09566e+01 -1.73386e+00 -2.46206e+01
       E -9.94953e-01 -1.39292e+01 -2.85870e+01
       E  1.87426e+01  7.23040e+00  5.83134e+00
3
# CELL(abcABC): 1322.94304  1322.94304  1322.94304    90.00000    90.00000    90.00000  Step:         500  Bead:      27 positions{angstrom}  cell{angstrom}
       E  4.23632e+01 -2.08923e+01 -3.62822e+01
       E  2.87675e+01  1.24474e+01  9.86351e+00
       E  1.15431e+01 -1.61593e+01  3.45534e+01
3
# CELL(abcABC): 1322.94304  1322.94304  1322.94304    90.00000    90.00000    90.00000  Step:         600  Bead:      27 positions{angstrom}  cell{angstrom}
       E  4.51568e+01 -6.86231e+00  1.40410e+01
       E -1.36077e+01 -2.13405e+01  4.53604e+01
       E  1.86148e+01  1.21093e+01  4.71296e+01
3
# CELL(abcABC): 1322.94304  1322.94304  1322.94304    90.00000    90.00000    90.00000  Step:         700  Bead:      27 positions{angstrom}  cell{angstrom}
       E  2.98987e+01  8.23935e+00 -2.72138e+01
       E -4.41056e+01  2.55729e+00  4.16569e+01
       E -3.06219e+01  1.88073e+01  5.93099e+01
3
# CELL(abcABC): 1322.94304  1322.94304  1322.94304    90.00000    90.00000    90.00000  Step:         800  Bead:      27 positions{angstrom}  cell{angstrom}
       E  6.29492e+01  8.46545e+00 -3.45662e+01
       E  6.49865e+00  2.50184e+00  5.15093e+01
       E -5.19765e+01  4.82949e+00  5.87519e+01
